----- GAMESS execution script -----
This job is running on host coupled.cem.msu.edu
under operating system Linux at Fri Apr 7 09:26:28 EDT 2023
Available scratch disk space (Kbyte units) at beginning of the job is
Filesystem      1K-blocks       Used Available Use% Mounted on
/dev/sdb2      2620586816 1627341992 860119948  66% /scratch

 Distributed Data Interface kickoff program.
 Initiating 1 compute processes on 1 nodes to run the following command:
 /home2/gururang/CC_PACKAGE/gamess/gamess.00.x hfhminus-triplet 

          ******************************************************
          *         GAMESS VERSION = 25 MAR 2010 (R1)          *
          *             FROM IOWA STATE UNIVERSITY             *
          * M.W.SCHMIDT, K.K.BALDRIDGE, J.A.BOATZ, S.T.ELBERT, *
          *   M.S.GORDON, J.H.JENSEN, S.KOSEKI, N.MATSUNAGA,   *
          *          K.A.NGUYEN, S.J.SU, T.L.WINDUS,           *
          *       TOGETHER WITH M.DUPUIS, J.A.MONTGOMERY       *
          *         J.COMPUT.CHEM.  14, 1347-1363(1993)        *
          **************** 64 BIT INTEL VERSION ****************

  SINCE 1993, STUDENTS AND POSTDOCS WORKING AT IOWA STATE UNIVERSITY
  AND ALSO IN THEIR VARIOUS JOBS AFTER LEAVING ISU HAVE MADE IMPORTANT
  CONTRIBUTIONS TO THE CODE:
     IVANA ADAMOVIC, CHRISTINE AIKENS, YURI ALEXEEV, POOJA ARORA,
     ANDREY ASADCHEV, ROB BELL, PRADIPTA BANDYOPADHYAY, JONATHAN BENTZ,
     BRETT BODE, GALINA CHABAN, WEI CHEN, CHEOL HO CHOI, PAUL DAY, TIM DUDLEY,
     DMITRI FEDOROV, GRAHAM FLETCHER, MARK FREITAG, KURT GLAESEMANN, DAN KEMP,
     GRANT MERRILL, JONATHAN MULLIN, TAKESHI NAGATA, SEAN NEDD,
     HEATHER NETZLOFF, BOSILJKA NJEGIC, RYAN OLSON, MIKE PAK, JIM SHOEMAKER,
     LYUDMILA SLIPCHENKO, SAROM SOK, JIE SONG, TETSUYA TAKETSUGU,
     SIMON WEBB, SOOHAENG YOO, FEDERICO ZAHARIEV

  ADDITIONAL CODE HAS BEEN PROVIDED BY COLLABORATORS IN OTHER GROUPS:
     IOWA STATE UNIVERSITY: JOE IVANIC, LAIMUTIS BYTAUTAS,
          KLAUS RUEDENBERG
     UNIVERSITY OF TOKYO: KIMIHIKO HIRAO, TAKAHITO NAKAJIMA,
          TAKAO TSUNEDA, MUNEAKI KAMIYA, SUSUMU YANAGISAWA,
          KIYOSHI YAGI, MAHITO CHIBA, SEIKEN TOKURA, NAOAKI KAWAKAMI
     UNIVERSITY OF AARHUS: FRANK JENSEN
     UNIVERSITY OF IOWA: VISVALDAS KAIRYS, HUI LI
     NATIONAL INST. OF STANDARDS AND TECHNOLOGY: WALT STEVENS, DAVID GARMER
     UNIVERSITY OF PISA: BENEDETTA MENNUCCI, JACOPO TOMASI
     UNIVERSITY OF MEMPHIS: HENRY KURTZ, PRAKASHAN KORAMBATH
     UNIVERSITY OF ALBERTA: MARIUSZ KLOBUKOWSKI
     UNIVERSITY OF NEW ENGLAND: MARK SPACKMAN
     MIE UNIVERSITY: HIROAKI UMEDA
     MICHIGAN STATE UNIVERSITY:
          KAROL KOWALSKI, MARTA WLOCH, JEFFREY GOUR, JESSE LUTZ, PIOTR PIECUCH
     UNIVERSITY OF SILESIA: MONIKA MUSIAL, STANISLAW KUCHARSKI
     FACULTES UNIVERSITAIRES NOTRE-DAME DE LA PAIX:
          OLIVIER QUINET, BENOIT CHAMPAGNE
     UNIVERSITY OF CALIFORNIA - SANTA BARBARA: BERNARD KIRTMAN
     INSTITUTE FOR MOLECULAR SCIENCE: KAZUYA ISHIMURA AND SHIGERU NAGASE
     UNIVERSITY OF NOTRE DAME: DAN CHIPMAN
     KYUSHU UNIVERSITY:
          HARUYUKI NAKANO,
          FENG LONG GU, JACEK KORCHOWIEC, MARCIN MAKOWSKI, AND YURIKO AOKI,
          HIROTOSHI MORI AND EISAKU MIYOSHI
     PENNSYLVANIA STATE UNIVERSITY:
          TZVETELIN IORDANOV, CHET SWALINA, JONATHAN SKONE,
          SHARON HAMMES-SCHIFFER
     WASEDA UNIVERSITY:
          MASATO KOBAYASHI, TOMOKO AKAMA, HIROMI NAKAI
     UNIVERSITY OF NEBRASKA:
          PEIFENG SU, DEJUN SI, YALI WANG, HUI LI

 EXECUTION OF GAMESS BEGUN Fri Apr  7 09:26:30 2023

            ECHO OF THE FIRST FEW INPUT CARDS -
 INPUT CARD>! CCSDt         E=     -100.5515302785   CORR. E=  -0.1923729228                
 INPUT CARD>! CC(t;3),A     E=     -100.5528015256   CORR. E=  -0.1936441699                
 INPUT CARD>! CC(t;3)       E=     -100.5530489409   CORR. E=  -0.1938915853                
 INPUT CARD>! J. Chem. Theory Comput. 8, 4968 (2012)                                        
 INPUT CARD>!                                                                               
 INPUT CARD> $contrl runtyp=energy scftyp=rohf cctyp=ccsd $end                              
 INPUT CARD> $contrl  icharg=-1 mult=3 ispher=1 $end                                        
 INPUT CARD> $system mwords=50 $end                                                         
 INPUT CARD> $basis gbasis=n31 ngauss=6 ndfunc=1 npfunc=1 $end                              
 INPUT CARD> $scf rstrct=.true. $end                                                        
 INPUT CARD> $guess norder=1 iorder(3)=4,5,3 $end                                           
 INPUT CARD> $ccinp ncore=0 $end                                                            
 INPUT CARD> $data                                                                          
 INPUT CARD>HFH-, triplet state at R = 2.0 Angs.                                            
 INPUT CARD>Dnh 2                                                                           
 INPUT CARD>                                                                                
 INPUT CARD> F   9.0      0.00000000      0.00000000      0.0000000                         
 INPUT CARD> H   1.0      0.00000000      0.00000000      2.0000000                         
 INPUT CARD> $end                                                                           
   50000000 WORDS OF MEMORY AVAILABLE

     BASIS OPTIONS
     -------------
     GBASIS=N31          IGAUSS=       6      POLAR=POPN31  
     NDFUNC=       1     NFFUNC=       0     DIFFSP=       F
     NPFUNC=       1      DIFFS=       F


     RUN TITLE
     ---------
 HFH-, triplet state at R = 2.0 Angs.                                            

 THE POINT GROUP OF THE MOLECULE IS DNH     
 THE ORDER OF THE PRINCIPAL AXIS IS     2

 ATOM      ATOMIC                      COORDINATES (BOHR)
           CHARGE         X                   Y                   Z
 F           9.0     0.0000000000        0.0000000000        0.0000000000
 H           1.0     0.0000000000        0.0000000000       -3.7794519754
 H           1.0     0.0000000000        0.0000000000        3.7794519754

          INTERNUCLEAR DISTANCES (ANGS.)
          ------------------------------

                1 F          2 H          3 H     

   1 F       0.0000000    2.0000000 *  2.0000000 *
   2 H       2.0000000 *  0.0000000    4.0000000  
   3 H       2.0000000 *  4.0000000    0.0000000  

  * ... LESS THAN  3.000


     ATOMIC BASIS SET
     ----------------
 THE CONTRACTED PRIMITIVE FUNCTIONS HAVE BEEN UNNORMALIZED
 THE CONTRACTED BASIS FUNCTIONS ARE NOW NORMALIZED TO UNITY

  SHELL TYPE  PRIMITIVE        EXPONENT          CONTRACTION COEFFICIENT(S)

 F         

      1   S       1          7001.7130900    0.001819616901
      1   S       2          1051.3660900    0.013916079607
      1   S       3           239.2856900    0.068405324535
      1   S       4            67.3974453    0.233185760119
      1   S       5            21.5199573    0.471267439240
      1   S       6             7.4031013    0.356618546182

      2   L       7            20.8479528   -0.108506975109    0.071628724237
      2   L       8             4.8083083   -0.146451658147    0.345912102697
      2   L       9             1.3440699    1.128688581135    0.722469956367

      3   L      10             0.3581514    1.000000000000    1.000000000000

      4   D      11             0.8000000    1.000000000000

 H         

      8   S      12            18.7311370    0.033494604338
      8   S      13             2.8253944    0.234726953484
      8   S      14             0.6401217    0.813757326146

      9   S      15             0.1612778    1.000000000000

     10   P      16             1.1000000    1.000000000000

 TOTAL NUMBER OF BASIS SET SHELLS             =   10
 NUMBER OF CARTESIAN GAUSSIAN BASIS FUNCTIONS =   25
 NOTE: THIS RUN WILL RESTRICT THE MO VARIATION SPACE TO SPHERICAL HARMONICS.
 THE NUMBER OF ORBITALS KEPT IN THE VARIATIONAL SPACE WILL BE PRINTED LATER.
 NUMBER OF ELECTRONS                          =   12
 CHARGE OF MOLECULE                           =   -1
 SPIN MULTIPLICITY                            =    3
 NUMBER OF OCCUPIED ORBITALS (ALPHA)          =    7
 NUMBER OF OCCUPIED ORBITALS (BETA )          =    5
 TOTAL NUMBER OF ATOMS                        =    3
 THE NUCLEAR REPULSION ENERGY IS        4.8948895555

 THIS MOLECULE IS RECOGNIZED AS BEING LINEAR,
 ORBITAL LZ DEGENERACY TOLERANCE ETOLLZ= 1.00E-06

     $CONTRL OPTIONS
     ---------------
 SCFTYP=ROHF         RUNTYP=ENERGY       EXETYP=RUN     
 MPLEVL=       0     CITYP =NONE         CCTYP =CCSD         VBTYP =NONE    
 DFTTYP=NONE         TDDFT =NONE    
 MULT  =       3     ICHARG=      -1     NZVAR =       0     COORD =UNIQUE  
 PP    =NONE         RELWFN=NONE         LOCAL =NONE         NUMGRD=       F
 ISPHER=       1     NOSYM =       0     MAXIT =      30     UNITS =ANGS    
 PLTORB=       F     MOLPLT=       F     AIMPAC=       F     FRIEND=        
 NPRINT=       7     IREST =       0     GEOM  =INPUT   
 NORMF =       0     NORMP =       0     ITOL  =      20     ICUT  =       9
 INTTYP=BEST         GRDTYP=BEST         QMTTOL= 1.0E-06

     $SYSTEM OPTIONS
     ---------------
  REPLICATED MEMORY=    50000000 WORDS (ON EVERY NODE).
 DISTRIBUTED MEMDDI=           0 MILLION WORDS IN AGGREGATE,
 MEMDDI DISTRIBUTED OVER   1 PROCESSORS IS           0 WORDS/PROCESSOR.
 TOTAL MEMORY REQUESTED ON EACH PROCESSOR=    50000000 WORDS.
 TIMLIM=      525600.00 MINUTES, OR     365.0 DAYS.
 PARALL= F  BALTYP=  DLB     KDIAG=    0  COREFL= F

          ----------------
          PROPERTIES INPUT
          ----------------

     MOMENTS            FIELD           POTENTIAL          DENSITY
 IEMOM =       1   IEFLD =       0   IEPOT =       0   IEDEN =       0
 WHERE =COMASS     WHERE =NUCLEI     WHERE =NUCLEI     WHERE =NUCLEI  
 OUTPUT=BOTH       OUTPUT=BOTH       OUTPUT=PUNCH      OUTPUT=BOTH    
 IEMINT=       0   IEFINT=       0                     IEDINT=       0
                                                       MORB  =       0
          EXTRAPOLATION IN EFFECT
          RESTRICTION OF ORBITAL MIXING IN EFFECT
          SOSCF IN EFFECT
 ORBITAL PRINTING OPTION: NPREO=     1    25     2     1

     -------------------------------
     INTEGRAL TRANSFORMATION OPTIONS
     -------------------------------
     NWORD  =         0     CUTOFF = 1.0E-09
     MPTRAN =         0     DIRTRF =       F
     AOINTS =DUP     

          ----------------------
          INTEGRAL INPUT OPTIONS
          ----------------------
 NOPK  =       1 NORDER=       0 SCHWRZ=       F

     ------------------------------------------
     THE POINT GROUP IS DNH, NAXIS= 2, ORDER= 8
     ------------------------------------------

 -- VARIATIONAL SPACE WILL BE RESTRICTED TO PURE SPHERICAL HARMONICS ONLY --
 AFTER EXCLUDING CONTAMINANT COMBINATIONS FROM THE CARTESIAN GAUSSIAN BASIS
 SET, THE NUMBER OF SPHERICAL HARMONICS KEPT IN THE VARIATION SPACE IS   24

     DIMENSIONS OF THE SYMMETRY SUBSPACES ARE
 AG  =    8     AU  =    0     B3U =    3     B3G =    2     B1G =    1
 B1U =    5     B2U =    3     B2G =    2

 ..... DONE SETTING UP THE RUN .....
 STEP CPU TIME =     0.00 TOTAL CPU TIME =        0.0 (    0.0 MIN)
 TOTAL WALL CLOCK TIME=        0.2 SECONDS, CPU UTILIZATION IS   0.00%

          ********************
          1 ELECTRON INTEGRALS
          ********************
 ...... END OF ONE-ELECTRON INTEGRALS ......
 STEP CPU TIME =     0.00 TOTAL CPU TIME =        0.0 (    0.0 MIN)
 TOTAL WALL CLOCK TIME=        0.2 SECONDS, CPU UTILIZATION IS   0.00%

          -------------
          GUESS OPTIONS
          -------------
          GUESS =HUCKEL            NORB  =       0          NORDER=       1
          MIX   =       F          PRTMO =       F          PUNMO =       F
          TOLZ  = 1.0E-08          TOLE  = 1.0E-05
          SYMDEN=       F          PURIFY=       F

 INITIAL GUESS ORBITALS GENERATED BY HUCKEL   ROUTINE.
 HUCKEL GUESS REQUIRES      6979 WORDS.

 STATISTICS FOR GENERATION OF SYMMETRY ORBITAL -Q- MATRIX
 NUMBER OF CARTESIAN ATOMIC ORBITALS=         25
 NUMBER OF SPHERICAL CONTAMINANTS DROPPED=     1
 NUMBER OF LINEARLY DEPENDENT MOS DROPPED=     0
 TOTAL NUMBER OF MOS IN VARIATION SPACE=      24

 SYMMETRIES FOR INITIAL GUESS ORBITALS FOLLOW.  ALPHA SET(S).
     7 ORBITALS ARE OCCUPIED (    1 CORE ORBITALS).
     2=AG       3=B2U      4=B3U      5=B1U      6=AG       7=B1U      8=AG  
     9=AG      10=AG      11=AG      12=AG      13=B3U     14=B3U     15=B3G 
    16=B3G     17=B1G 

 SYMMETRIES FOR INITIAL GUESS ORBITALS FOLLOW.   BETA SET(S).
     5 ORBITALS ARE OCCUPIED (    1 CORE ORBITALS).
     2=AG       3=B2U      4=B3U      5=B1U      6=AG       7=B1U      8=AG  
     9=AG      10=AG      11=AG      12=AG      13=B3U     14=B3U     15=B3G 
 ...... END OF INITIAL ORBITAL SELECTION ......
 STEP CPU TIME =     0.01 TOTAL CPU TIME =        0.0 (    0.0 MIN)
 TOTAL WALL CLOCK TIME=        0.2 SECONDS, CPU UTILIZATION IS   5.00%

                    ----------------------
                    AO INTEGRAL TECHNOLOGY
                    ----------------------
     S,P,L SHELL ROTATED AXIS INTEGRALS, REPROGRAMMED BY
        KAZUYA ISHIMURA (IMS) AND JOSE SIERRA (SYNSTAR).
     S,P,D,L SHELL ROTATED AXIS INTEGRALS PROGRAMMED BY
        KAZUYA ISHIMURA (INSTITUTE FOR MOLECULAR SCIENCE).
     S,P,D,F,G SHELL TO TOTAL QUARTET ANGULAR MOMENTUM SUM 5,
        ERIC PROGRAM BY GRAHAM FLETCHER (ELORET AND NASA ADVANCED
        SUPERCOMPUTING DIVISION, AMES RESEARCH CENTER).
     S,P,D,F,G,L SHELL GENERAL RYS QUADRATURE PROGRAMMED BY
        MICHEL DUPUIS (PACIFIC NORTHWEST NATIONAL LABORATORY).

          --------------------
          2 ELECTRON INTEGRALS
          --------------------

 THE -PK- OPTION IS OFF, THE INTEGRALS ARE NOT IN SUPERMATRIX FORM.
 STORING   15000 INTEGRALS/RECORD ON DISK, USING 12 BYTES/INTEGRAL.
 TWO ELECTRON INTEGRAL EVALUATION REQUIRES   90451 WORDS OF MEMORY.
 II,JST,KST,LST =  1  1  1  1 NREC =         1 INTLOC =    1
 II,JST,KST,LST =  2  1  1  1 NREC =         1 INTLOC =    2
 II,JST,KST,LST =  3  1  1  1 NREC =         1 INTLOC =   34
 II,JST,KST,LST =  4  1  1  1 NREC =         1 INTLOC =  214
 II,JST,KST,LST =  5  1  1  1 NREC =         1 INTLOC = 1189
 II,JST,KST,LST =  6  1  1  1 NREC =         1 INTLOC = 1189
 II,JST,KST,LST =  7  1  1  1 NREC =         1 INTLOC = 1189
 II,JST,KST,LST =  8  1  1  1 NREC =         1 INTLOC = 1189
 II,JST,KST,LST =  9  1  1  1 NREC =         1 INTLOC = 1961
 II,JST,KST,LST = 10  1  1  1 NREC =         1 INTLOC = 3137
 TOTAL NUMBER OF NONZERO TWO-ELECTRON INTEGRALS =                7307
          1 INTEGRAL RECORDS WERE STORED ON DISK FILE  8.
  ...... END OF TWO-ELECTRON INTEGRALS .....
 STEP CPU TIME =     0.02 TOTAL CPU TIME =        0.0 (    0.0 MIN)
 TOTAL WALL CLOCK TIME=        0.3 SECONDS, CPU UTILIZATION IS  11.11%

          ---------------------------
                 ROHF SCF CALCULATION
          ---------------------------

     NUCLEAR ENERGY =         4.8948895555
     MAXIT = 30     NPUNCH=  2     MULT=  3
     EXTRAP=T  DAMP=F  SHIFT=F  RSTRCT=T  DIIS=F  SOSCF=T
     DENSITY MATRIX CONV=  1.00E-06
     ROHF CANONICALIZATION PARAMETERS
             C-C     O-O     V-V
     ALPHA -0.5000  0.5000  1.5000
     BETA   1.5000  0.5000 -0.5000
     SOSCF WILL OPTIMIZE     129 ORBITAL ROTATION ANGLES. SOGTOL= 2.500E-01
     MEMORY REQUIRED FOR UHF/ROHF ITERS=     36730 WORDS.

 ITER EX      TOTAL ENERGY        E CHANGE  DENSITY CHANGE    ORB. GRAD 
   1  0     -100.0976388643  -100.0976388643   0.496267993   0.000000000
          ---------------START SECOND ORDER SCF---------------
   2  1     -100.3025308157    -0.2048919514   0.296967725   0.144798599
   3  2     -100.2440079356     0.0585228801   0.184830305   0.128928318
   4  3     -100.3516542803    -0.1076463447   0.106868423   0.048567977
   5  4     -100.3549971404    -0.0033428601   0.043000842   0.039488734
   6  5     -100.3589550308    -0.0039578904   0.013615638   0.007937848
   7  6     -100.3591451048    -0.0001900740   0.003806062   0.001597542
   8  7     -100.3591569852    -0.0000118804   0.000542608   0.000369002
   9  8     -100.3591573130    -0.0000003278   0.000261269   0.000127463
  10  9     -100.3591573552    -0.0000000422   0.000017581   0.000012175
  11 10     -100.3591573556    -0.0000000005   0.000005299   0.000002163
  12 11     -100.3591573557     0.0000000000   0.000000644   0.000000479
  13 12     -100.3591573557     0.0000000000   0.000000083   0.000000054

 ROHF HAS CONVERGED, NOW COMPUTING EXACT ALPHA,BETA FOCK MATRICES
 FOR USE DURING THE COUPLED CLUSTER CALCULATION THAT FOLLOWS.

          -----------------
          DENSITY CONVERGED
          -----------------

 FINAL ROHF ENERGY IS     -100.3591573557 AFTER  13 ITERATIONS

          --------------------
          SPIN SZ   =    1.000
          S-SQUARED =    2.000
          --------------------

 LZ VALUE ANALYSIS FOR THE MOS
 ----------------------------------------
 MO     1 (    1) HAS LZ(WEIGHT)= 0.00(100.0%) 
 MO     2 (    2) HAS LZ(WEIGHT)= 0.00(100.0%) 
 MO     3 (    3) HAS LZ(WEIGHT)=-1.00( 50.0%)  1.00( 50.0%) 
 MO     4 (    3) HAS LZ(WEIGHT)=-1.00( 50.0%)  1.00( 50.0%) 
 MO     5 (    4) HAS LZ(WEIGHT)= 0.00(100.0%) 
 MO     6 (    5) HAS LZ(WEIGHT)= 0.00(100.0%) 
 MO     7 (    6) HAS LZ(WEIGHT)= 0.00(100.0%) 
 MO     8 (    7) HAS LZ(WEIGHT)= 0.00(100.0%) 
 MO     9 (    8) HAS LZ(WEIGHT)= 0.00(100.0%) 
 MO    10 (    9) HAS LZ(WEIGHT)= 0.00(100.0%) 
 MO    11 (   10) HAS LZ(WEIGHT)= 0.00(100.0%) 
 MO    12 (   11) HAS LZ(WEIGHT)= 0.00(100.0%) 
 MO    13 (   12) HAS LZ(WEIGHT)= 0.00(100.0%) 
 MO    14 (   13) HAS LZ(WEIGHT)= 0.00(100.0%) 
 MO    15 (   14) HAS LZ(WEIGHT)= 0.00(100.0%) 
 MO    16 (   15) HAS LZ(WEIGHT)= 0.00(100.0%) 
 MO    17 (   16) HAS LZ(WEIGHT)= 0.00(100.0%) 
 MO    18 (   17) HAS LZ(WEIGHT)= 0.00(100.0%) 
 MO    19 (   18) HAS LZ(WEIGHT)= 0.00(100.0%) 
 MO    20 (   19) HAS LZ(WEIGHT)= 0.00(100.0%) 
 MO    21 (   20) HAS LZ(WEIGHT)= 0.00(100.0%) 
 MO    22 (   21) HAS LZ(WEIGHT)= 0.00(100.0%) 
 MO    23 (   22) HAS LZ(WEIGHT)= 0.00(100.0%) 
 MO    24 (   23) HAS LZ(WEIGHT)= 0.00(100.0%) 

          ------------
          EIGENVECTORS
          ------------

                      1          2          3          4          5
                  -25.7667    -1.0030    -0.1370    -0.1370    -0.0366
                     AG         AG         B2U        B3U        B1U 
    1  F  1  S    0.995592  -0.237047   0.000000   0.000000   0.000000
    2  F  1  S    0.020531   0.496282   0.000000   0.000000   0.000000
    3  F  1  X    0.000000   0.000000   0.000000   0.628398   0.000000
    4  F  1  Y    0.000000   0.000000   0.628398   0.000000   0.000000
    5  F  1  Z    0.000000   0.000000   0.000000   0.000000   0.567097
    6  F  1  S   -0.004433   0.589529   0.000000   0.000000   0.000000
    7  F  1  X    0.000000   0.000000   0.000000   0.524872   0.000000
    8  F  1  Y    0.000000   0.000000   0.524872   0.000000   0.000000
    9  F  1  Z    0.000000   0.000000   0.000000   0.000000   0.461058
   10  F  1 XX    0.000051  -0.000128   0.000000   0.000000   0.000000
   11  F  1 YY    0.000051  -0.000128   0.000000   0.000000   0.000000
   12  F  1 ZZ   -0.000102   0.000255   0.000000   0.000000   0.000000
   13  F  1 XY    0.000000   0.000000   0.000000   0.000000   0.000000
   14  F  1 XZ    0.000000   0.000000   0.000000   0.000000   0.000000
   15  F  1 YZ    0.000000   0.000000   0.000000   0.000000   0.000000
   16  H  2  S   -0.000177   0.006264   0.000000   0.000000  -0.068991
   17  H  2  S    0.000491   0.013339   0.000000   0.000000  -0.166954
   18  H  2  X    0.000000   0.000000   0.000000   0.003133   0.000000
   19  H  2  Y    0.000000   0.000000   0.003133   0.000000   0.000000
   20  H  2  Z    0.000133   0.002272   0.000000   0.000000  -0.007824
   21  H  3  S   -0.000177   0.006264   0.000000   0.000000   0.068991
   22  H  3  S    0.000491   0.013339   0.000000   0.000000   0.166954
   23  H  3  X    0.000000   0.000000   0.000000   0.003133   0.000000
   24  H  3  Y    0.000000   0.000000   0.003133   0.000000   0.000000
   25  H  3  Z   -0.000133  -0.002272   0.000000   0.000000  -0.007824

                      6          7          8          9         10
                    0.0716     0.1325     2.0572     1.1273     2.3863
                     AG         B1U        AG         AG         AG  
    1  F  1  S    0.026237   0.000000  -0.107095  -0.030362   0.052532
    2  F  1  S   -0.040656   0.000000   1.286464   0.115914  -0.678075
    3  F  1  X    0.000000   0.000000   0.000000   0.000000   0.000000
    4  F  1  Y    0.000000   0.000000   0.000000   0.000000   0.000000
    5  F  1  Z    0.000000   0.267943   0.000000   0.000000   0.000000
    6  F  1  S   -0.145138   0.000000  -1.276663   0.098773   0.688924
    7  F  1  X    0.000000   0.000000   0.000000   0.000000   0.000000
    8  F  1  Y    0.000000   0.000000   0.000000   0.000000   0.000000
    9  F  1  Z    0.000000   0.289228   0.000000   0.000000   0.000000
   10  F  1 XX    0.001587   0.000000   0.064362  -0.010814   0.333425
   11  F  1 YY    0.001587   0.000000   0.064362  -0.010814   0.333425
   12  F  1 ZZ   -0.003175   0.000000  -0.128724   0.021629  -0.666850
   13  F  1 XY    0.000000   0.000000   0.000000   0.000000   0.000000
   14  F  1 XZ    0.000000   0.000000   0.000000   0.000000   0.000000
   15  F  1 YZ    0.000000   0.000000   0.000000   0.000000   0.000000
   16  H  2  S    0.287258   0.275085  -0.129723   0.898114   0.051009
   17  H  2  S    0.493813   0.481873   0.219252  -0.824973  -0.070680
   18  H  2  X    0.000000   0.000000   0.000000   0.000000   0.000000
   19  H  2  Y    0.000000   0.000000   0.000000   0.000000   0.000000
   20  H  2  Z   -0.013203  -0.017954  -0.329931  -0.002095  -0.412263
   21  H  3  S    0.287258  -0.275085  -0.129723   0.898114   0.051009
   22  H  3  S    0.493813  -0.481873   0.219252  -0.824973  -0.070680
   23  H  3  X    0.000000   0.000000   0.000000   0.000000   0.000000
   24  H  3  Y    0.000000   0.000000   0.000000   0.000000   0.000000
   25  H  3  Z    0.013203  -0.017954   0.329931   0.002095   0.412263

                     11         12         13         14         15
                    2.8140     2.5951     1.9218     2.4504     2.5905
                     AG         AG         B3U        B3U        B3G 
    1  F  1  S    0.029338   0.000000   0.000000   0.000000   0.000000
    2  F  1  S   -0.439272   0.000000   0.000000   0.000000   0.000000
    3  F  1  X    0.000000   0.000000  -0.961323   0.116745   0.000000
    4  F  1  Y    0.000000   0.000000   0.000000   0.000000   0.000000
    5  F  1  Z    0.000000   0.000000   0.000000   0.000000   0.000000
    6  F  1  S    0.484103   0.000000   0.000000   0.000000   0.000000
    7  F  1  X    0.000000   0.000000   1.018596  -0.142083   0.000000
    8  F  1  Y    0.000000   0.000000   0.000000   0.000000   0.000000
    9  F  1  Z    0.000000   0.000000   0.000000   0.000000   0.000000
   10  F  1 XX   -0.372036  -0.866025   0.000000   0.000000   0.000000
   11  F  1 YY   -0.372036   0.866025   0.000000   0.000000   0.000000
   12  F  1 ZZ    0.744073   0.000000   0.000000   0.000000   0.000000
   13  F  1 XY    0.000000   0.000000   0.000000   0.000000   0.000000
   14  F  1 XZ    0.000000   0.000000   0.000000   0.000000   0.000000
   15  F  1 YZ    0.000000   0.000000   0.000000   0.000000   0.967801
   16  H  2  S    0.055424   0.000000   0.000000   0.000000   0.000000
   17  H  2  S   -0.144961   0.000000   0.000000   0.000000   0.000000
   18  H  2  X    0.000000   0.000000   0.077558   0.703031   0.000000
   19  H  2  Y    0.000000   0.000000   0.000000   0.000000   0.182972
   20  H  2  Z   -0.474385   0.000000   0.000000   0.000000   0.000000
   21  H  3  S    0.055424   0.000000   0.000000   0.000000   0.000000
   22  H  3  S   -0.144961   0.000000   0.000000   0.000000   0.000000
   23  H  3  X    0.000000   0.000000   0.077558   0.703031   0.000000
   24  H  3  Y    0.000000   0.000000   0.000000   0.000000  -0.182972
   25  H  3  Z    0.474385   0.000000   0.000000   0.000000   0.000000

                     16         17         18         19         20
                    2.4307     2.5951     1.8449     1.1338     2.7387
                     B3G        B1G        B1U        B1U        B1U 
    1  F  1  S    0.000000   0.000000   0.000000   0.000000   0.000000
    2  F  1  S    0.000000   0.000000   0.000000   0.000000   0.000000
    3  F  1  X    0.000000   0.000000   0.000000   0.000000   0.000000
    4  F  1  Y    0.000000   0.000000   0.000000   0.000000   0.000000
    5  F  1  Z    0.000000   0.000000  -0.863555  -0.059677  -0.479197
    6  F  1  S    0.000000   0.000000   0.000000   0.000000   0.000000
    7  F  1  X    0.000000   0.000000   0.000000   0.000000   0.000000
    8  F  1  Y    0.000000   0.000000   0.000000   0.000000   0.000000
    9  F  1  Z    0.000000   0.000000   0.930876  -0.185976   0.672675
   10  F  1 XX    0.000000   0.000000   0.000000   0.000000   0.000000
   11  F  1 YY    0.000000   0.000000   0.000000   0.000000   0.000000
   12  F  1 ZZ    0.000000   0.000000   0.000000   0.000000   0.000000
   13  F  1 XY    0.000000   1.000000   0.000000   0.000000   0.000000
   14  F  1 XZ    0.000000   0.000000   0.000000   0.000000   0.000000
   15  F  1 YZ   -0.251818   0.000000   0.000000   0.000000   0.000000
   16  H  2  S    0.000000   0.000000  -0.042071   0.910763  -0.057568
   17  H  2  S    0.000000   0.000000   0.186870  -0.859635   0.186557
   18  H  2  X    0.000000   0.000000   0.000000   0.000000   0.000000
   19  H  2  Y    0.683042   0.000000   0.000000   0.000000   0.000000
   20  H  2  Z    0.000000   0.000000  -0.291097   0.011342   0.655845
   21  H  3  S    0.000000   0.000000   0.042071  -0.910763   0.057568
   22  H  3  S    0.000000   0.000000  -0.186870   0.859635  -0.186557
   23  H  3  X    0.000000   0.000000   0.000000   0.000000   0.000000
   24  H  3  Y   -0.683042   0.000000   0.000000   0.000000   0.000000
   25  H  3  Z    0.000000   0.000000  -0.291097   0.011342   0.655845

                     21         22         23         24
                    1.9218     2.4504     2.5905     2.4307
                     B2U        B2U        B2G        B2G 
    1  F  1  S    0.000000   0.000000   0.000000   0.000000
    2  F  1  S    0.000000   0.000000   0.000000   0.000000
    3  F  1  X    0.000000   0.000000   0.000000   0.000000
    4  F  1  Y   -0.961323   0.116745   0.000000   0.000000
    5  F  1  Z    0.000000   0.000000   0.000000   0.000000
    6  F  1  S    0.000000   0.000000   0.000000   0.000000
    7  F  1  X    0.000000   0.000000   0.000000   0.000000
    8  F  1  Y    1.018596  -0.142083   0.000000   0.000000
    9  F  1  Z    0.000000   0.000000   0.000000   0.000000
   10  F  1 XX    0.000000   0.000000   0.000000   0.000000
   11  F  1 YY    0.000000   0.000000   0.000000   0.000000
   12  F  1 ZZ    0.000000   0.000000   0.000000   0.000000
   13  F  1 XY    0.000000   0.000000   0.000000   0.000000
   14  F  1 XZ    0.000000   0.000000   0.967801  -0.251818
   15  F  1 YZ    0.000000   0.000000   0.000000   0.000000
   16  H  2  S    0.000000   0.000000   0.000000   0.000000
   17  H  2  S    0.000000   0.000000   0.000000   0.000000
   18  H  2  X    0.000000   0.000000   0.182972   0.683042
   19  H  2  Y    0.077558   0.703031   0.000000   0.000000
   20  H  2  Z    0.000000   0.000000   0.000000   0.000000
   21  H  3  S    0.000000   0.000000   0.000000   0.000000
   22  H  3  S    0.000000   0.000000   0.000000   0.000000
   23  H  3  X    0.000000   0.000000  -0.182972  -0.683042
   24  H  3  Y    0.077558   0.703031   0.000000   0.000000
   25  H  3  Z    0.000000   0.000000   0.000000   0.000000
 ...... END OF ROHF CALCULATION ......
 STEP CPU TIME =     0.01 TOTAL CPU TIME =        0.0 (    0.0 MIN)
 TOTAL WALL CLOCK TIME=        0.3 SECONDS, CPU UTILIZATION IS  13.33%

     ----------------------------------------------------------------
     PROPERTY VALUES FOR THE ROHF  SELF-CONSISTENT FIELD WAVEFUNCTION
     ----------------------------------------------------------------

          ---------------------------------------
          MULLIKEN AND LOWDIN POPULATION ANALYSES
          ---------------------------------------

          MULLIKEN SPHERICAL HARMONIC POPULATIONS
       ATOM           S       P       D      F      G      H      I    TOTAL
    1 F             2.00    2.99    0.00   0.00   0.00   0.00   0.00    4.98
    2 H             1.01    0.00    0.00   0.00   0.00   0.00   0.00    1.01
    3 H             1.01    0.00    0.00   0.00   0.00   0.00   0.00    1.01

          MULLIKEN SPHERICAL HARMONIC POPULATIONS
       ATOM           S       P       D      F      G      H      I    TOTAL
    1 F             2.00    2.85    0.00   0.00   0.00   0.00   0.00    4.85
    2 H             0.08    0.00    0.00   0.00   0.00   0.00   0.00    0.08
    3 H             0.08    0.00    0.00   0.00   0.00   0.00   0.00    0.08

     ATOMIC SPIN POPULATION (ALPHA MINUS BETA)
       ATOM         MULL.POP.                    LOW.POP.
    1 F             0.135589                     0.159302
    2 H             0.932206                     0.920349
    3 H             0.932206                     0.920349

               ----- POPULATIONS IN EACH AO -----
                             MULLIKEN      LOWDIN
              1  F  1  S      1.99774     1.97870
              2  F  1  S      0.89755     0.83769
              3  F  1  X      1.11928     1.10331
              4  F  1  Y      1.11928     1.10331
              5  F  1  Z      1.02061     1.00481
              6  F  1  S      1.09508     0.62219
              7  F  1  X      0.88059     0.89652
              8  F  1  Y      0.88059     0.89652
              9  F  1  Z      0.81576     0.83896
             10  F  1 XX     -0.00026     0.18445
             11  F  1 YY      0.00000     0.18445
             12  F  1 ZZ      0.00000     0.18249
             13  F  1 XY      0.00000     0.00000
             14  F  1 XZ      0.00000     0.00000
             15  F  1 YZ      0.00000     0.00000
             16  H  2  S      0.36124     0.40935
             17  H  2  S      0.72350     0.67056
             18  H  2  X      0.00007     0.00008
             19  H  2  Y      0.00007     0.00008
             20  H  2  Z      0.00202     0.00322
             21  H  3  S      0.36124     0.40935
             22  H  3  S      0.72350     0.67056
             23  H  3  X      0.00007     0.00008
             24  H  3  Y      0.00007     0.00008
             25  H  3  Z      0.00202     0.00322

          ----- MULLIKEN ATOMIC OVERLAP POPULATIONS -----
          (OFF-DIAGONAL ELEMENTS NEED TO BE MULTIPLIED BY 2)

             1           2           3

    1    9.8364200
    2   -0.0051030   1.0924431
    3   -0.0051030  -0.0004471   1.0924431

          TOTAL MULLIKEN AND LOWDIN ATOMIC POPULATIONS
       ATOM         MULL.POP.    CHARGE          LOW.POP.     CHARGE
    1 F             9.826214   -0.826214         9.833406   -0.833406
    2 H             1.086893   -0.086893         1.083297   -0.083297
    3 H             1.086893   -0.086893         1.083297   -0.083297

          MULLIKEN SPHERICAL HARMONIC POPULATIONS
       ATOM           S       P       D      F      G      H      I    TOTAL
    1 F             3.99    5.84    0.00   0.00   0.00   0.00   0.00    9.83
    2 H             1.08    0.00    0.00   0.00   0.00   0.00   0.00    1.09
    3 H             1.08    0.00    0.00   0.00   0.00   0.00   0.00    1.09

          -------------------------------
          BOND ORDER AND VALENCE ANALYSIS     BOND ORDER THRESHOLD=0.050
          -------------------------------

                   BOND                       BOND                       BOND
  ATOM PAIR DIST  ORDER      ATOM PAIR DIST  ORDER      ATOM PAIR DIST  ORDER
    1   2  2.000  0.125        1   3  2.000  0.125

                       TOTAL       BONDED        FREE
      ATOM            VALENCE     VALENCE     VALENCE
    1 F                 0.269       0.250       0.019
    2 H                 1.004       0.135       0.869
    3 H                 1.004       0.135       0.869

          -----------------------------------------
          ATOMIC SPIN DENSITY AT THE NUCLEUS (A.U.)
          -----------------------------------------
                            SPIN DENS    ALPHA DENS     BETA DENS
    1  F            9.0     0.1197955     210.10903     209.98924
    2  H            1.0     0.2690576       0.27977       0.01071
    3  H            1.0     0.2690576       0.27977       0.01071

          ---------------------
          ELECTROSTATIC MOMENTS
          ---------------------

 POINT   1           X           Y           Z (BOHR)    CHARGE
                 0.000000    0.000000    0.000000       -1.00 (A.U.)
         DX          DY          DZ         /D/  (DEBYE)
     0.000000    0.000000    0.000000    0.000000
 ...... END OF PROPERTY EVALUATION ......
 STEP CPU TIME =     0.00 TOTAL CPU TIME =        0.0 (    0.0 MIN)
 TOTAL WALL CLOCK TIME=        0.3 SECONDS, CPU UTILIZATION IS  12.90%

     ---------------------------
     COUPLED CLUSTER CALCULATION
     ---------------------------
 CCTYP                        =CCSD    
 TOTAL NUMBER OF MOS          =    24
 NUMBER OF OCCUPIED MOS       =     7
 NUMBER OF FROZEN CORE MOS    =     0
 NUMBER OF FROZEN VIRTUAL MOS =     0
 MAXIMUM CC ITERATIONS        =    30
 MAXIMUM DIIS ITERATIONS      =    -1
 CONVERGENCE CRITERION FOR CC =     7
 AMPLITUDE ACCURACY THRESHOLD = 0.0E+00

     --------------------------------------------
     PARTIAL TWO ELECTRON INTEGRAL TRANSFORMATION
     --------------------------------------------

 NUMBER OF CORE MOLECULAR ORBITALS     =    0
 NUMBER OF OCCUPIED MOLECULAR ORBITALS =   24
 TOTAL NUMBER OF MOLECULAR ORBITALS    =   24
 TOTAL NUMBER OF ATOMIC ORBITALS       =   25
 THRESHOLD FOR KEEPING TRANSFORMED 2E- INTEGRALS = 1.000E-09
 AO INTEGRALS WILL BE READ IN FROM DISK...
 # OF WORDS AVAILABLE =   50000000
 # OF WORDS NEEDED    =     258177 FOR IN MEMORY TRANSFORMATION

 CHOOSING IN MEMORY PARTIAL TRANSFORMATION...
 TOTAL NUMBER OF TRANSFORMED 2E- INTEGRALS KEPT =      6265
 ... END OF INTEGRAL TRANSFORMATION ...
 STEP CPU TIME =     0.02 TOTAL CPU TIME =        0.1 (    0.0 MIN)
 TOTAL WALL CLOCK TIME=        0.3 SECONDS, CPU UTILIZATION IS  18.75%

   -----------------------     ----------------------------------------------
   ROHF-COUPLED-CLUSTER PROGRAM     XXXXXXXXXXXXXXXXXXXXXXXXXXXXXXXXXXX
   -----------------------     ----------------------------------------------
 JESTEM W ROCCDRVR

 THE FOLLOWING CALCULATIONS WILL BE PERFORMED:
                                                     CCSD   

 THE FOLLOWING ENERGY WILL BE CONSIDERED THE HIGHEST LEVEL:    CCSD   
 THE AVAILABLE REPLICATED MEMORY IS    50000000 WORDS.
 CONVERGENCE THRESHOLD:   1.0E-07
 MAXIMUM NUMBER OF ITERATIONS:   30
 ### NH NP ###                     7                    17
 BEFORE DRROSING
 THE EOM-CCSD POINT GROUP IS D2H
 JESTEM W DRROSING

 MEMORY TO BE USED IN CC INTEGRAL SORTING IS      362076 WORDS.
 THE MINIMUM MEMORY TO ACCOMPLISH SORTING IS      362076 WORDS.
 BEFORE ROSING
 NINTMX                 15000
 JESTEM W ROSING STEP1
 JESTEM W ROSING STEP2
 NCCTCORR                    24
 JESTEM W ROSING STEP3
 NINTMX                 15000
 JESTEM W ROSING STEP4
 JESTEM W ROSING STEP5
 JESTEM W ROSING
 ....... DONE WITH CC INTEGRAL PREPARATION .......
 STEP CPU TIME =     0.25 TOTAL CPU TIME =        0.3 (    0.0 MIN)
 TOTAL WALL CLOCK TIME=        0.6 SECONDS, CPU UTILIZATION IS  53.45%
                440000  WORDS OF DYNAMIC MEMORY USED
 EXECUTION OF GAMESS TERMINATED NORMALLY Fri Apr  7 09:26:30 2023
 DDI: 263624 bytes (0.3 MB / 0 MWords) used by master data server.

 ----------------------------------------
 CPU timing information for all processes
 ========================================
 0: 0.151 + 0.174 = 0.325
 ----------------------------------------
 ddikick.x: exited gracefully.
----- accounting info -----
Files used on the master node coupled.cem.msu.edu were:
-rw-r--r-- 1 gururang piecuch     658 Apr  7 09:26 /scratch/gururang/CC_PACKAGE/hfhminus-triplet.inp/hfhminus-triplet.F05
-rw-r--r-- 1 gururang piecuch  180016 Apr  7 09:26 /scratch/gururang/CC_PACKAGE/hfhminus-triplet.inp/hfhminus-triplet.F08
-rw-r--r-- 1 gururang piecuch  182424 Apr  7 09:26 /scratch/gururang/CC_PACKAGE/hfhminus-triplet.inp/hfhminus-triplet.F09
-rw-r--r-- 1 gururang piecuch 1308800 Apr  7 09:26 /scratch/gururang/CC_PACKAGE/hfhminus-triplet.inp/hfhminus-triplet.F10
-rw-r--r-- 1 gururang piecuch       0 Apr  7 09:26 /scratch/gururang/CC_PACKAGE/hfhminus-triplet.inp/hfhminus-triplet.F72
Fri Apr  7 09:26:33 EDT 2023
0.182u 0.099s 0:05.31 5.0%	0+0k 280+112io 2pf+0w
