 &FCI NORB=24,NELEC=12,MS2=2
  ORBSYM=1,1,7,8,6,1,6,1,1,1,1,1,8,8,4,4,2,6,6,6,7,7,3,3,
  ISYM=1 UHF=.FALSE.
 &END
  0.5356518409847459D+01   1   1   1   1
 -0.5295574263014016D+00   2   1   1   1
  0.1256663879770179D+01   2   2   1   1
  0.1186852240339611D+01   3   3   1   1
  0.1186852240339611D+01   4   4   1   1
  0.1035792126214140D+01   5   5   1   1
  0.5459660490210683D-01   6   1   1   1
 -0.8512026419255146D-01   6   2   1   1
  0.2642602433239038D+00   6   6   1   1
  0.3438724428667273D+00   7   5   1   1
  0.4054138673276807D+00   7   7   1   1
  0.4213397971649778D+00   8   1   1   1
 -0.4436353452573942D+00   8   2   1   1
  0.9044683390905447D-01   8   6   1   1
  0.8292481958283456D+00   8   8   1   1
  0.7457286388062187D-01   9   1   1   1
 -0.9238971631763140D-01   9   2   1   1
  0.6137505887869247D-03   9   6   1   1
  0.1041102722116685D+00   9   8   1   1
  0.2656089495903614D+00   9   9   1   1
 -0.2145637316603660D+00  10   1   1   1
  0.2199356393839617D+00  10   2   1   1
  0.9935768478498523D-04  10   6   1   1
 -0.2442448237134142D+00  10   8   1   1
 -0.5114376928813711D-01  10   9   1   1
  0.6448495008927712D+00  10  10   1   1
 -0.1305788622631887D+00  11   1   1   1
  0.1276350409551969D+00  11   2   1   1
 -0.1541927463369859D-01  11   6   1   1
 -0.2141462889331756D+00  11   8   1   1
 -0.5249434297290503D-01  11   9   1   1
 -0.1500306285394582D+00  11  10   1   1
  0.5852020160546728D+00  11  11   1   1
  0.7611726447612435D+00  12  12   1   1
 -0.5874758823729648D+00  13   4   1   1
  0.1138338131396056D+01  13  13   1   1
  0.6382218884270313D-01  14   4   1   1
 -0.1048694778004984D+00  14  13   1   1
  0.2729713654715099D+00  14  14   1   1
  0.7289001954765291D+00  15  15   1   1
 -0.1229886333974457D+00  16  15   1   1
  0.2926612904484946D+00  16  16   1   1
  0.7611726447612399D+00  17  17   1   1
 -0.4686928727490364D+00  18   5   1   1
 -0.2700779693186923D+00  18   7   1   1
  0.9614809939450466D+00  18  18   1   1
  0.7482337876384726D-01  19   5   1   1
  0.1756196677161234D-01  19   7   1   1
 -0.7546713089726570D-01  19  18   1   1
  0.2513841037009192D+00  19  19   1   1
 -0.2228202901737699D+00  20   5   1   1
 -0.9362142454851310D-01  20   7   1   1
  0.3663720435576930D+00  20  18   1   1
 -0.5457101768118114D-01  20  19   1   1
  0.4730030561985192D+00  20  20   1   1
 -0.5874758823729644D+00  21   3   1   1
  0.1138338131396054D+01  21  21   1   1
  0.6382218884270399D-01  22   3   1   1
 -0.1048694778005004D+00  22  21   1   1
  0.2729713654715102D+00  22  22   1   1
  0.7289001954765476D+00  23  23   1   1
 -0.1229886333974120D+00  24  23   1   1
  0.2926612904484755D+00  24  24   1   1
  0.8494072374448731D-01   2   1   2   1
 -0.2275165626678115D-01   2   2   2   1
 -0.1428163699010135D-01   3   3   2   1
 -0.1428163699010130D-01   4   4   2   1
 -0.1166168063794550D-01   5   5   2   1
 -0.8832564257747809D-02   6   1   2   1
  0.2379850711646017D-02   6   2   2   1
 -0.2474788661450858D-03   6   6   2   1
 -0.5519549997894598D-02   7   5   2   1
 -0.2610646189892416D-02   7   7   2   1
 -0.6814491044131846D-01   8   1   2   1
  0.1854090499212715D-01   8   2   2   1
 -0.1935223106760276D-02   8   6   2   1
 -0.1526432934794063D-01   8   8   2   1
 -0.1209438442987162D-01   9   1   2   1
  0.3276975114386154D-02   9   2   2   1
 -0.3426448477392155D-03   9   6   2   1
 -0.2674588295898398D-02   9   8   2   1
 -0.4706569537114886D-03   9   9   2   1
  0.3472523835546090D-01  10   1   2   1
 -0.9459719719272444D-02  10   2   2   1
  0.9864192357653008D-03  10   6   2   1
  0.7757476188064222D-02  10   8   2   1
  0.1366747302256933D-02  10   9   2   1
 -0.4134911931315010D-02  10  10   2   1
  0.2113016309374926D-01  11   1   2   1
 -0.5756695308123108D-02  11   2   2   1
  0.6020394190104968D-03  11   6   2   1
  0.4781110034250443D-02  11   8   2   1
  0.8285144043517774D-03  11   9   2   1
 -0.2242387846599788D-02  11  10   2   1
 -0.1676414486502690D-02  11  11   2   1
 -0.3591724629740390D-03  12  12   2   1
  0.1788398389093063D-01  13   4   2   1
 -0.2261933400256445D-01  13  13   2   1
 -0.2131821638399053D-02  14   4   2   1
  0.2699321083483330D-02  14  13   2   1
 -0.3206068751747364D-03  14  14   2   1
 -0.3387922850308130D-03  15  15   2   1
  0.8851506616368104D-04  16  15   2   1
 -0.2148664726998772D-04  16  16   2   1
 -0.3591724629741485D-03  17  17   2   1
  0.1452774412557514D-01  18   5   2   1
  0.6872988410921812D-02  18   7   2   1
 -0.1828192928981361D-01  18  18   2   1
 -0.1295837128359229D-02  19   5   2   1
 -0.6134648146293701D-03  19   7   2   1
  0.1608918339013796D-02  19  18   2   1
 -0.1428101928898186D-03  19  19   2   1
  0.7773112640816184D-02  20   5   2   1
  0.3677599640847428D-02  20   7   2   1
 -0.9804175169514659D-02  20  18   2   1
  0.8601041627848925D-03  20  19   2   1
 -0.5257951847622363D-02  20  20   2   1
  0.1788398389092931D-01  21   3   2   1
 -0.2261933400256391D-01  21  21   2   1
 -0.2131821638398923D-02  22   3   2   1
  0.2699321083483332D-02  22  21   2   1
 -0.3206068751747592D-03  22  22   2   1
 -0.3387922850299422D-03  23  23   2   1
  0.8851506616342916D-04  24  23   2   1
 -0.2148664726990079D-04  24  24   2   1
  0.8772247927372933D+00   2   2   2   2
  0.8405952452570455D+00   3   3   2   2
  0.8405952452569664D+00   4   4   2   2
  0.7520762804160293D+00   5   5   2   2
  0.2221098060191166D-02   6   1   2   2
 -0.4663617681296470D-01   6   2   2   2
  0.2604955437768972D+00   6   6   2   2
  0.2105251369594514D+00   7   5   2   2
  0.3429481075069813D+00   7   7   2   2
  0.1706117845955643D-01   8   1   2   2
 -0.1688015465840217D+00   8   2   2   2
  0.6143440244569371D-01   8   6   2   2
  0.5966539931716777D+00   8   8   2   2
  0.3011585903017964D-02   9   1   2   2
 -0.4212692586991191D-01   9   2   2   2
 -0.4792514323616857D-02   9   6   2   2
  0.6379646614017180D-01   9   8   2   2
  0.2586656119067358D+00   9   9   2   2
 -0.8653508128399594D-02  10   1   2   2
  0.8077658608516029D-01  10   2   2   2
  0.1398748059282099D-01  10   6   2   2
 -0.1307858465836814D+00  10   8   2   2
 -0.3095779714950975D-01  10   9   2   2
  0.5560379443409256D+00  10  10   2   2
 -0.5264618869719713D-02  11   1   2   2
  0.4349449248469860D-01  11   2   2   2
 -0.5667776042687454D-02  11   6   2   2
 -0.1362439871435256D+00  11   8   2   2
 -0.3974441022161948D-01  11   9   2   2
 -0.1557522761981669D+00  11  10   2   2
  0.5286458360941156D+00  11  11   2   2
  0.6979521521039502D+00  12  12   2   2
 -0.2325466291571902D+00  13   4   2   2
  0.7248190151242061D+00  13  13   2   2
  0.2248136403884025D-01  14   4   2   2
 -0.5592208588098035D-01  14  13   2   2
  0.2674954052788869D+00  14  14   2   2
  0.6699170987692876D+00  15  15   2   2
 -0.1075432725042961D+00  16  15   2   2
  0.2889617700692175D+00  16  16   2   2
  0.6979521521039477D+00  17  17   2   2
 -0.1796038062761204D+00  18   5   2   2
 -0.1330753021530806D+00  18   7   2   2
  0.6272868984466137D+00  18  18   2   2
  0.4348222353535607D-01  19   5   2   2
  0.2635593923937652D-02  19   7   2   2
 -0.4268434397924298D-01  19  18   2   2
  0.2480888050646401D+00  19  19   2   2
 -0.7490476357771264D-01  20   5   2   2
 -0.2335256551130387D-01  20   7   2   2
  0.1902786036270437D+00  20  18   2   2
 -0.3775817665509779D-01  20  19   2   2
  0.3800834147788297D+00  20  20   2   2
 -0.2325466291571965D+00  21   3   2   2
  0.7248190151242577D+00  21  21   2   2
  0.2248136403884000D-01  22   3   2   2
 -0.5592208588098824D-01  22  21   2   2
  0.2674954052788885D+00  22  22   2   2
  0.6699170987692470D+00  23  23   2   2
 -0.1075432725042521D+00  24  23   2   2
  0.2889617700691963D+00  24  24   2   2
  0.3562299939098788D-01   3   1   3   1
  0.3783186791236567D-01   3   2   3   1
 -0.3503747126563930D-02   6   3   3   1
 -0.1898596400051708D-01   8   3   3   1
 -0.3655386271850796D-02   9   3   3   1
  0.2208380393352104D-02  10   3   3   1
  0.1226450240827810D-01  11   3   3   1
  0.1686402748175516D-01  12   3   3   1
  0.1493726293727237D-01  15   5   3   1
  0.6649268904607889D-02  15   7   3   1
 -0.4101460247961312D-02  16   5   3   1
 -0.1261691887053736D-02  16   7   3   1
  0.1686402748174714D-01  17   4   3   1
 -0.3731929477651471D-02  17  13   3   1
  0.2341299963377242D-03  17  14   3   1
 -0.3505191495982446D-02  18  15   3   1
  0.8187981379833989D-03  18  16   3   1
  0.1158625838572886D-02  19  15   3   1
 -0.4423382736513848D-03  19  16   3   1
 -0.3151535287891707D-03  20  15   3   1
  0.2471335229355178D-03  20  16   3   1
 -0.4517901806906736D-01  21   1   3   1
 -0.2405161841442516D-01  21   2   3   1
  0.3120696186491022D-02  21   6   3   1
  0.2571015323283446D-01  21   8   3   1
  0.4612999678342898D-02  21   9   3   1
 -0.1167452436322900D-01  21  10   3   1
 -0.9616498028666069D-02  21  11   3   1
 -0.3731929477649420D-02  21  12   3   1
  0.5392656517708466D-02  22   1   3   1
  0.2616341332214230D-02  22   2   3   1
  0.1469978288326749D-03  22   6   3   1
 -0.2999484692697306D-02  22   8   3   1
 -0.6792843119961780D-03  22   9   3   1
  0.1605861886695405D-02  22  10   3   1
  0.1203162805083484D-02  22  11   3   1
  0.2341299963763947D-03  22  12   3   1
  0.1700729035041961D+00   3   2   3   2
 -0.1307744546409684D-01   6   3   3   2
 -0.3227943543989750D-01   8   3   3   2
 -0.8302988008822570D-02   9   3   3   2
 -0.3061169682629873D-01  10   3   3   2
  0.4833193786417655D-01  11   3   3   2
  0.1042389798497051D+00  12   3   3   2
  0.9286744132826003D-01  15   5   3   2
  0.4000513939994439D-01  15   7   3   2
 -0.2669997779076557D-01  16   5   3   2
 -0.4842854532026328D-02  16   7   3   2
  0.1042389798496293D+00  17   4   3   2
  0.1258006553800175D-01  17  13   3   2
 -0.3223875096266782D-02  17  14   3   2
  0.8514627525395252D-02  18  15   3   2
 -0.3305713774792726D-02  18  16   3   2
  0.4834945834472715D-02  19  15   3   2
 -0.2939728622577714D-02  19  16   3   2
  0.1731175883772939D-01  20  15   3   2
 -0.2538133661545284D-02  20  16   3   2
 -0.4355481396698763D-01  21   1   3   2
 -0.5202588150778328D-01  21   2   3   2
  0.1213712730776379D-01  21   6   3   2
  0.1026527830607285D+00  21   8   3   2
  0.2049741452556286D-01  21   9   3   2
 -0.5904231912384815D-01  21  10   3   2
 -0.2790807851375967D-01  21  11   3   2
  0.1258006553811598D-01  21  12   3   2
  0.5145611541924669D-02  22   1   3   2
  0.4646227482249340D-02  22   2   3   2
  0.4580620599658496D-02  22   6   3   2
 -0.1195793832481895D-01  22   8   3   2
 -0.4110503004789946D-02  22   9   3   2
  0.9468955328027214D-02  22  10   3   2
  0.4450883837961354D-02  22  11   3   2
 -0.3223875095336415D-02  22  12   3   2
  0.8677965368793332D+00   3   3   3   3
  0.7819100513167337D+00   4   4   3   3
  0.7015139359883366D+00   5   5   3   3
  0.1316562101815108D-02   6   1   3   3
 -0.4461664208006212D-01   6   2   3   3
  0.2548541947866101D+00   6   6   3   3
  0.1909939449072511D+00   7   5   3   3
  0.3291761957730624D+00   7   7   3   3
  0.1011852294710337D-01   8   1   3   3
 -0.1592607735309033D+00   8   2   3   3
  0.5766863067956694D-01   8   6   3   3
  0.5775500575663000D+00   8   8   3   3
  0.1792949744333277D-02   9   1   3   3
 -0.3941200399522842D-01   9   2   3   3
 -0.3822769543410573D-02   9   6   3   3
  0.6125698615441621D-01   9   8   3   3
  0.2536325890035867D+00   9   9   3   3
 -0.6164603322637689D-02  10   1   3   3
  0.5651649906369129D-01  10   2   3   3
  0.1383807713970358D-01  10   6   3   3
 -0.1320029288001207D+00  10   8   3   3
 -0.2956603485040845D-01  10   9   3   3
  0.5358925069498058D+00  10  10   3   3
 -0.2106819752109604D-02  11   1   3   3
  0.5920736110661555D-01  11   2   3   3
 -0.6385727364713908D-02  11   6   3   3
 -0.1266109045631379D+00  11   8   3   3
 -0.3773939617839089D-01  11   9   3   3
 -0.1420051224685419D+00  11  10   3   3
  0.4998060777320233D+00  11  11   3   3
  0.2483777459822545D-02  12   1   3   3
  0.4548921437848817D-01  12   2   3   3
 -0.3590004219878876D-02  12   6   3   3
  0.5515807430137577D-02  12   8   3   3
 -0.8102180379517262D-03  12   9   3   3
 -0.2634728885732932D-01  12  10   3   3
  0.1782308910774891D-01  12  11   3   3
  0.6936078595422527D+00  12  12   3   3
 -0.2103795590987866D+00  13   4   3   3
  0.6861532334158270D+00  13  13   3   3
  0.2030476102700690D-01  14   4   3   3
 -0.5211398706056457D-01  14  13   3   3
  0.2608919794462608D+00  14  14   3   3
  0.6653289607856269D+00  15  15   3   3
 -0.1077290319297397D+00  16  15   3   3
  0.2834256635710963D+00  16  16   3   3
  0.6936078595422092D+00  17  17   3   3
 -0.1622355602989841D+00  18   5   3   3
 -0.1217936489107468D+00  18   7   3   3
  0.5945966625225748D+00  18  18   3   3
  0.3884481931283123D-01  19   5   3   3
  0.2268113933712334D-02  19   7   3   3
 -0.3984402448985426D-01  19  18   3   3
  0.2432436197299446D+00  19  19   3   3
 -0.6772255228188244D-01  20   5   3   3
 -0.2090017118626646D-01  20   7   3   3
  0.1775952594976253D+00  20  18   3   3
 -0.3520154043308910D-01  20  19   3   3
  0.3658284723142375D+00  20  20   3   3
 -0.2353497400808536D+00  21   3   3   3
  0.7487525639129703D+00  21  21   3   3
  0.2230272144084547D-01  22   3   3   3
 -0.5983153788426663D-01  22  21   3   3
  0.2624560258169051D+00  22  22   3   3
  0.6160224600140938D+00  23  23   3   3
 -0.9501365030517182D-01  24  23   3   3
  0.2795197697900684D+00  24  24   3   3
  0.3562299939098940D-01   4   1   4   1
  0.3783186791235591D-01   4   2   4   1
 -0.3503747126563458D-02   6   4   4   1
 -0.1898596400052461D-01   8   4   4   1
 -0.3655386271856553D-02   9   4   4   1
  0.2208380393344771D-02  10   4   4   1
  0.1226450240829368D-01  11   4   4   1
 -0.1686402748174203D-01  12   4   4   1
 -0.4517901806906843D-01  13   1   4   1
 -0.2405161841442266D-01  13   2   4   1
  0.3120696186491176D-02  13   6   4   1
  0.2571015323283912D-01  13   8   4   1
  0.4612999678344773D-02  13   9   4   1
 -0.1167452436322974D-01  13  10   4   1
 -0.9616498028669797D-02  13  11   4   1
  0.3731929477644415D-02  13  12   4   1
  0.5392656517708472D-02  14   1   4   1
  0.2616341332214028D-02  14   2   4   1
  0.1469978288328740D-03  14   6   4   1
 -0.2999484692697700D-02  14   8   4   1
 -0.6792843119963817D-03  14   9   4   1
  0.1605861886695619D-02  14  10   4   1
  0.1203162805083774D-02  14  11   4   1
 -0.2341299963759445D-03  14  12   4   1
  0.1686402748174964D-01  17   3   4   1
 -0.3731929477650830D-02  21  17   4   1
  0.2341299963375949D-03  22  17   4   1
  0.1493726293727548D-01  23   5   4   1
  0.6649268904609175D-02  23   7   4   1
 -0.3505191495981895D-02  23  18   4   1
  0.1158625838573032D-02  23  19   4   1
 -0.3151535287884392D-03  23  20   4   1
 -0.4101460247960984D-02  24   5   4   1
 -0.1261691887053329D-02  24   7   4   1
  0.8187981379829321D-03  24  18   4   1
 -0.4423382736513856D-03  24  19   4   1
  0.2471335229353679D-03  24  20   4   1
  0.1700729035040151D+00   4   2   4   2
 -0.1307744546408553D-01   6   4   4   2
 -0.3227943543993898D-01   8   4   4   2
 -0.8302988008855174D-02   9   4   4   2
 -0.3061169682630472D-01  10   4   4   2
  0.4833193786423710D-01  11   4   4   2
 -0.1042389798495157D+00  12   4   4   2
 -0.4355481396697052D-01  13   1   4   2
 -0.5202588150778089D-01  13   2   4   2
  0.1213712730775828D-01  13   6   4   2
  0.1026527830606672D+00  13   8   4   2
  0.2049741452554717D-01  13   9   4   2
 -0.5904231912381529D-01  13  10   4   2
 -0.2790807851373812D-01  13  11   4   2
 -0.1258006553808179D-01  13  12   4   2
  0.5145611541922466D-02  14   1   4   2
  0.4646227482251529D-02  14   2   4   2
  0.4580620599655010D-02  14   6   4   2
 -0.1195793832481061D-01  14   8   4   2
 -0.4110503004786293D-02  14   9   4   2
  0.9468955328021944D-02  14  10   4   2
  0.4450883837956570D-02  14  11   4   2
  0.3223875095328894D-02  14  12   4   2
  0.1042389798495828D+00  17   3   4   2
  0.1258006553799023D-01  21  17   4   2
 -0.3223875096264741D-02  22  17   4   2
  0.9286744132821027D-01  23   5   4   2
  0.4000513939992274D-01  23   7   4   2
  0.8514627525384259D-02  23  18   4   2
  0.4834945834470863D-02  23  19   4   2
  0.1731175883771579D-01  23  20   4   2
 -0.2669997779074324D-01  24   5   4   2
 -0.4842854532021312D-02  24   7   4   2
 -0.3305713774788465D-02  24  18   4   2
 -0.2939728622575673D-02  24  19   4   2
 -0.2538133661541652D-02  24  20   4   2
  0.4294324278128927D-01   4   3   4   3
 -0.1248509049116315D-01  13   3   4   3
  0.9989802057532506D-03  14   3   4   3
  0.2483777459825277D-02  17   1   4   3
  0.4548921437795345D-01  17   2   4   3
 -0.3590004220611963D-02  17   6   4   3
  0.5515807429323196D-02  17   8   4   3
 -0.8102180356514440D-03  17   9   4   3
 -0.2634728885753669D-01  17  10   4   3
  0.1782308910774956D-01  17  11   4   3
 -0.1248509049116310D-01  21   4   4   3
  0.3129966524852518D-01  21  13   4   3
 -0.3858775412057912D-02  21  14   4   3
  0.9989802057532339D-03  22   4   4   3
 -0.3858775412058005D-02  22  13   4   3
  0.7820231854140330D-03  22  14   4   3
  0.2465325038605018D-01  23  15   4   3
 -0.6357690811791838D-02  23  16   4   3
 -0.6357690811789791D-02  24  15   4   3
  0.1952946890237962D-02  24  16   4   3
  0.8677965368793328D+00   4   4   4   4
  0.7015139359883366D+00   5   5   4   4
  0.1316562101815057D-02   6   1   4   4
 -0.4461664208005678D-01   6   2   4   4
  0.2548541947866098D+00   6   6   4   4
  0.1909939449072509D+00   7   5   4   4
  0.3291761957730625D+00   7   7   4   4
  0.1011852294710243D-01   8   1   4   4
 -0.1592607735309279D+00   8   2   4   4
  0.5766863067956880D-01   8   6   4   4
  0.5775500575662952D+00   8   8   4   4
  0.1792949744332398D-02   9   1   4   4
 -0.3941200399524293D-01   9   2   4   4
 -0.3822769543409483D-02   9   6   4   4
  0.6125698615441468D-01   9   8   4   4
  0.2536325890035873D+00   9   9   4   4
 -0.6164603322639717D-02  10   1   4   4
  0.5651649906369862D-01  10   2   4   4
  0.1383807713970353D-01  10   6   4   4
 -0.1320029288001112D+00  10   8   4   4
 -0.2956603485039937D-01  10   9   4   4
  0.5358925069498237D+00  10  10   4   4
 -0.2106819752106636D-02  11   1   4   4
  0.5920736110663826D-01  11   2   4   4
 -0.6385727364716061D-02  11   6   4   4
 -0.1266109045631411D+00  11   8   4   4
 -0.3773939617839752D-01  11   9   4   4
 -0.1420051224685699D+00  11  10   4   4
  0.4998060777320532D+00  11  11   4   4
 -0.2483777459827281D-02  12   1   4   4
 -0.4548921437745627D-01  12   2   4   4
  0.3590004219818796D-02  12   6   4   4
 -0.5515807429744391D-02  12   8   4   4
  0.8102180381867318D-03  12   9   4   4
  0.2634728885734773D-01  12  10   4   4
 -0.1782308910822371D-01  12  11   4   4
  0.6936078595421706D+00  12  12   4   4
 -0.2353497400808535D+00  13   4   4   4
  0.7487525639129712D+00  13  13   4   4
  0.2230272144084539D-01  14   4   4   4
 -0.5983153788426532D-01  14  13   4   4
  0.2624560258169050D+00  14  14   4   4
  0.6160224600140796D+00  15  15   4   4
 -0.9501365030519771D-01  16  15   4   4
  0.2795197697900833D+00  16  16   4   4
  0.6936078595422092D+00  17  17   4   4
 -0.1622355602989840D+00  18   5   4   4
 -0.1217936489107468D+00  18   7   4   4
  0.5945966625225748D+00  18  18   4   4
  0.3884481931283124D-01  19   5   4   4
  0.2268113933712259D-02  19   7   4   4
 -0.3984402448985420D-01  19  18   4   4
  0.2432436197299447D+00  19  19   4   4
 -0.6772255228188237D-01  20   5   4   4
 -0.2090017118626641D-01  20   7   4   4
  0.1775952594976252D+00  20  18   4   4
 -0.3520154043308906D-01  20  19   4   4
  0.3658284723142375D+00  20  20   4   4
 -0.2103795590987864D+00  21   3   4   4
  0.6861532334158262D+00  21  21   4   4
  0.2030476102700696D-01  22   3   4   4
 -0.5211398706056570D-01  22  21   4   4
  0.2608919794462610D+00  22  22   4   4
  0.6653289607856431D+00  23  23   4   4
 -0.1077290319297102D+00  24  23   4   4
  0.2834256635710796D+00  24  24   4   4
  0.2907668093703182D-01   5   1   5   1
  0.3126684091254845D-01   5   2   5   1
 -0.1066236672680938D-02   6   5   5   1
  0.1375738579935881D-01   7   1   5   1
  0.1399727628926087D-01   7   2   5   1
 -0.3802669003605884D-02   7   6   5   1
 -0.1216315263703017D-01   8   5   5   1
 -0.6824049912164384D-02   8   7   5   1
 -0.2695006527676228D-02   9   5   5   1
 -0.9218067528980226D-03   9   7   5   1
  0.1836759960084910D-01  10   5   5   1
  0.7884584927409939D-02  10   7   5   1
 -0.7326044130676296D-02  11   5   5   1
 -0.3302600076457508D-02  11   7   5   1
  0.1473729279967421D-01  15   3   5   1
 -0.3906751871439015D-02  16   3   5   1
 -0.3669300875870331D-01  18   1   5   1
 -0.1973895636277384D-01  18   2   5   1
  0.3210093472706381D-02  18   6   5   1
  0.2098259596144399D-01  18   8   5   1
  0.3903786244204161D-02  18   9   5   1
 -0.1182207155477238D-01  18  10   5   1
 -0.2224499485139035D-02  18  11   5   1
  0.3219084109606701D-02  19   1   5   1
  0.3086754393709598D-02  19   2   5   1
  0.1901668042744005D-03  19   6   5   1
 -0.1516497268678956D-02  19   8   5   1
 -0.3053777256514313D-02  19   9   5   1
  0.2036270206782131D-02  19  10   5   1
 -0.6945449240737398D-04  19  11   5   1
 -0.1968550820018945D-01  20   1   5   1
 -0.8868063494331458D-02  20   2   5   1
  0.7163906438057950D-03  20   6   5   1
  0.9293028750642749D-02  20   8   5   1
  0.2342904015194767D-02  20   9   5   1
 -0.7812041658986619D-02  20  10   5   1
 -0.4812380245240673D-02  20  11   5   1
 -0.3374574891211846D-02  21  15   5   1
  0.4147097395942297D-03  21  16   5   1
 -0.5521644684066795D-03  22  15   5   1
 -0.3072737716538618D-02  22  16   5   1
  0.1473729279967506D-01  23   4   5   1
 -0.3374574891211732D-02  23  13   5   1
 -0.5521644684064665D-03  23  14   5   1
 -0.3906751871438022D-02  24   4   5   1
  0.4147097395939394D-03  24  13   5   1
 -0.3072737716538666D-02  24  14   5   1
  0.1457379769784018D+00   5   2   5   2
  0.1077844120044982D-01   6   5   5   2
  0.1477600573139139D-01   7   1   5   2
  0.6027925122924509D-01   7   2   5   2
 -0.3945073120263579D-01   7   6   5   2
 -0.1700755393630843D-02   8   5   5   2
 -0.1352375253704162D-01   8   7   5   2
 -0.3535341143185369D-02   9   5   5   2
  0.4053686886299051D-02   9   7   5   2
  0.8227803156824760D-01  10   5   5   2
  0.2973515151359875D-01  10   7   5   2
 -0.6771701116857200D-01  11   5   5   2
 -0.3198248635095571D-01  11   7   5   2
  0.9363053349490671D-01  15   3   5   2
 -0.2530537697321118D-01  16   3   5   2
 -0.3580402243776400D-01  18   1   5   2
 -0.4324923049507658D-01  18   2   5   2
  0.1879261731512593D-01  18   6   5   2
  0.9890982333692810D-01  18   8   5   2
  0.1814781947787540D-01  18   9   5   2
 -0.2025075054667709D-01  18  10   5   2
 -0.1627640001554746D-01  18  11   5   2
  0.3501285627105536D-02  19   1   5   2
  0.1145484980890761D-01  19   2   5   2
  0.6187140335086226D-02  19   6   5   2
 -0.5200932106824117D-03  19   8   5   2
 -0.3751438792541548D-01  19   9   5   2
  0.9278830111456559D-02  19  10   5   2
  0.7184002132550882D-03  19  11   5   2
 -0.1881818307173081D-01  20   1   5   2
 -0.1280222951094628D-01  20   2   5   2
 -0.2014241042372776D-02  20   6   5   2
  0.2929242819658563D-01  20   8   5   2
  0.1391872645312697D-01  20   9   5   2
 -0.3779942255058964D-01  20  10   5   2
 -0.5295152676258525D-01  20  11   5   2
  0.1082080085307274D-01  21  15   5   2
 -0.9087474446131415D-02  21  16   5   2
 -0.1346128326769616D-01  22  15   5   2
 -0.4053510119838379D-01  22  16   5   2
  0.9363053349489835D-01  23   4   5   2
  0.1082080085307051D-01  23  13   5   2
 -0.1346128326769232D-01  23  14   5   2
 -0.2530537697320123D-01  24   4   5   2
 -0.9087474446129618D-02  24  13   5   2
 -0.4053510119838485D-01  24  14   5   2
  0.3636068672781358D-01   5   3   5   3
  0.1555606051099613D-01   7   3   5   3
  0.2184878244847672D-02  15   1   5   3
  0.4069249659618153D-01  15   2   5   3
 -0.2086266793137009D-02  15   6   5   3
  0.9903313141497210D-02  15   8   5   3
  0.1116560890133282D-02  15   9   5   3
  0.3692246471811118D-02  15  10   5   3
 -0.1418594712791706D-01  15  11   5   3
  0.2363557154213405D-01  15  12   5   3
 -0.5687732475921464D-03  16   1   5   3
 -0.1081409239001562D-01  16   2   5   3
 -0.2318215505872621D-02  16   6   5   3
 -0.3264722485180516D-02  16   8   5   3
  0.5350944287607124D-03  16   9   5   3
 -0.1709729250978767D-02  16  10   5   3
  0.2827358913359813D-02  16  11   5   3
 -0.6171906546073213D-02  16  12   5   3
 -0.1046482955961719D-01  18   3   5   3
  0.2595079798342340D-02  19   3   5   3
 -0.2309324111821348D-02  20   3   5   3
 -0.9089365611259824D-02  21   5   5   3
 -0.6771594616071653D-02  21   7   5   3
  0.2559919380013656D-01  21  18   5   3
 -0.3241406139183336D-02  21  19   5   3
  0.1434064504011874D-01  21  20   5   3
  0.1836872069836086D-02  22   5   5   3
 -0.1865997717775161D-02  22   7   5   3
 -0.2513614357632693D-02  22  18   5   3
  0.1257940873222658D-02  22  19   5   3
 -0.2932660314391903D-02  22  20   5   3
  0.2363557154218864D-01  23  17   5   3
 -0.6171906545820156D-02  24  17   5   3
  0.3636068672781358D-01   5   4   5   4
  0.1555606051099613D-01   7   4   5   4
 -0.9089365611259840D-02  13   5   5   4
 -0.6771594616071650D-02  13   7   5   4
  0.1836872069836092D-02  14   5   5   4
 -0.1865997717775143D-02  14   7   5   4
  0.2363557154218818D-01  17  15   5   4
 -0.6171906545821977D-02  17  16   5   4
 -0.1046482955961716D-01  18   4   5   4
  0.2559919380013657D-01  18  13   5   4
 -0.2513614357632619D-02  18  14   5   4
  0.2595079798342334D-02  19   4   5   4
 -0.3241406139183343D-02  19  13   5   4
  0.1257940873222636D-02  19  14   5   4
 -0.2309324111821329D-02  20   4   5   4
  0.1434064504011875D-01  20  13   5   4
 -0.2932660314391858D-02  20  14   5   4
  0.2184878244848828D-02  23   1   5   4
  0.4069249659616184D-01  23   2   5   4
 -0.2086266793135686D-02  23   6   5   4
  0.9903313141487171D-02  23   8   5   4
  0.1116560890125336D-02  23   9   5   4
  0.3692246471803213D-02  23  10   5   4
 -0.1418594712789746D-01  23  11   5   4
 -0.2363557154210998D-01  23  12   5   4
 -0.5687732475922688D-03  24   1   5   4
 -0.1081409239000713D-01  24   2   5   4
 -0.2318215505873055D-02  24   6   5   4
 -0.3264722485177064D-02  24   8   5   4
  0.5350944287628457D-03  24   9   5   4
 -0.1709729250976385D-02  24  10   5   4
  0.2827358913353546D-02  24  11   5   4
  0.6171906546064984D-02  24  12   5   4
  0.7025039375867195D+00   5   5   5   5
  0.1100104424860089D-02   6   1   5   5
 -0.3342591939666937D-01   6   2   5   5
  0.2822482780265935D+00   6   6   5   5
  0.1783105177789055D+00   7   5   5   5
  0.3514949651489651D+00   7   7   5   5
  0.8707643959709740D-02   8   1   5   5
 -0.1225695216181580D+00   8   2   5   5
  0.5715649964483299D-01   8   6   5   5
  0.5453229348050838D+00   8   8   5   5
  0.1444460428023956D-02   9   1   5   5
 -0.3160682690446059D-01   9   2   5   5
 -0.1693776344063005D-01   9   6   5   5
  0.5050684541018867D-01   9   8   5   5
  0.2777723447244431D+00   9   9   5   5
 -0.2651728450209855D-02  10   1   5   5
  0.9405514320005424D-01  10   2   5   5
  0.1509960114085506D-01  10   6   5   5
 -0.8557983984452258D-01  10   8   5   5
 -0.2605308067842385D-01  10   9   5   5
  0.5174117656496697D+00  10  10   5   5
 -0.4364472690471195D-02  11   1   5   5
 -0.4197575606282908D-03  11   2   5   5
  0.5288416551507513D-03  11   6   5   5
 -0.1106004503404602D+00  11   8   5   5
 -0.3637928959672181D-01  11   9   5   5
 -0.1289397762510865D+00  11  10   5   5
  0.5153210584773329D+00  11  11   5   5
  0.5841026107665839D+00  12  12   5   5
 -0.1752604208802689D+00  13   4   5   5
  0.6209044167714668D+00  13  13   5   5
  0.1748925508079865D-01  14   4   5   5
 -0.3939910591035208D-01  14  13   5   5
  0.2945829882376931D+00  14  14   5   5
  0.6099254531183088D+00  15  15   5   5
 -0.8429423445330131D-01  16  15   5   5
  0.3120697269911516D+00  16  16   5   5
  0.5841026107665815D+00  17  17   5   5
 -0.1456727733069660D+00  18   5   5   5
 -0.1173871987602423D+00  18   7   5   5
  0.5977953876392030D+00  18  18   5   5
  0.4125805176270338D-01  19   5   5   5
 -0.1034588563908086D-01  19   7   5   5
 -0.3651934111122564D-01  19  18   5   5
  0.2690364123495366D+00  19  19   5   5
 -0.6411512475047047D-01  20   5   5   5
 -0.1534096893669135D-01  20   7   5   5
  0.1562524008923049D+00  20  18   5   5
 -0.3723199814276481D-01  20  19   5   5
  0.3915996834615020D+00  20  20   5   5
 -0.1752604208802688D+00  21   3   5   5
  0.6209044167714661D+00  21  21   5   5
  0.1748925508079874D-01  22   3   5   5
 -0.3939910591035292D-01  22  21   5   5
  0.2945829882376932D+00  22  22   5   5
  0.6099254531183215D+00  23  23   5   5
 -0.8429423445327834D-01  24  23   5   5
  0.3120697269911384D+00  24  24   5   5
  0.9186867980810723D-03   6   1   6   1
 -0.2360967050486633D-03   6   2   6   1
  0.2846920145446504D-04   6   6   6   1
  0.5248514073497280D-03   7   5   6   1
  0.2552667702467661D-03   7   7   6   1
  0.7084736027675728D-02   8   1   6   1
 -0.1868366691396485D-02   8   2   6   1
  0.1847308070375411D-03   8   6   6   1
  0.1495787978257378D-02   8   8   6   1
  0.1257820820993675D-02   9   1   6   1
 -0.3294065405621448D-03   9   2   6   1
  0.3392885304037636D-04   9   6   6   1
  0.2594419719213760D-03   9   8   6   1
  0.4712375922514518D-04   9   9   6   1
 -0.3608970343750927D-02  10   1   6   1
  0.9662829573726123D-03  10   2   6   1
 -0.1050042038251506D-03  10   6   6   1
 -0.7676400670980850D-03  10   8   6   1
 -0.1355638971754759D-03  10   9   6   1
  0.3723657663602420D-03  10  10   6   1
 -0.2197905836140158D-02  11   1   6   1
  0.5696123279914860D-03  11   2   6   1
 -0.5926415228771132D-04  11   6   6   1
 -0.4608708467319877D-03  11   8   6   1
 -0.7747002802289244D-04  11   9   6   1
  0.2537613441275728D-03  11  10   6   1