 &FCI NORB=26,NELEC=6,MS2=0
  ORBSYM=1,1,1,4,3,1,1,3,4,1,1,1,4,3,1,1,4,3,2,1,1,3,4,1,1,1,
  ISYM=1 UHF=.FALSE.
 &END
  0.3511366659537967D+01   1   1   1   1
 -0.3026157375429217D+00   2   1   1   1
  0.7837378800280314D+00   2   2   1   1
  0.1642354182167236D+00   3   1   1   1
 -0.7023198692233094D-01   3   2   1   1
  0.7759769621513343D+00   3   3   1   1
  0.7038386564256418D+00   4   4   1   1
  0.7038386564256423D+00   5   5   1   1
 -0.8261603499012844D-01   6   1   1   1
  0.1163579033072853D+00   6   2   1   1
  0.1949660251374384D-01   6   3   1   1
  0.2336315863388496D+00   6   6   1   1
  0.4376933598019339D-02   7   1   1   1
  0.1754381425735835D-01   7   2   1   1
  0.6602393405855539D-01   7   3   1   1
  0.1854019101811085D-01   7   6   1   1
  0.1412065188913478D+00   7   7   1   1
 -0.8148896541804236D-01   8   5   1   1
  0.1254884195683843D+00   8   8   1   1
 -0.8148896541804226D-01   9   4   1   1
  0.1254884195683841D+00   9   9   1   1
  0.5149922972243328D-01  10   1   1   1
 -0.7960156622691986D-01  10   2   1   1
 -0.3986819316402678D-01  10   3   1   1
 -0.7081884628676133D-01  10   6   1   1
 -0.2951915911037966D-01  10   7   1   1
  0.1459126392985934D+00  10  10   1   1
  0.6568469881309863D-01  11   1   1   1
 -0.1077751807229059D+00  11   2   1   1
 -0.8254248735909628D-01  11   3   1   1
 -0.7295084147522050D-01  11   6   1   1
 -0.2998589808292846D-01  11   7   1   1
  0.9898251833299787D-01  11  10   1   1
  0.3839134093312702D+00  11  11   1   1
  0.1384010406420829D-01  12   1   1   1
  0.6611566694725207D-01  12   2   1   1
  0.2363535873918955D+00  12   3   1   1
  0.5927545035419725D-01  12   6   1   1
  0.8965434815278667D-01  12   7   1   1
 -0.7335860412122867D-01  12  10   1   1
 -0.9452537470879374D-01  12  11   1   1
  0.4730179520034578D+00  12  12   1   1
 -0.3228699531015897D+00  13   4   1   1
  0.9909438788680898D-01  13   9   1   1
  0.6016770356219402D+00  13  13   1   1
 -0.3228699531015898D+00  14   5   1   1
  0.9909438788680937D-01  14   8   1   1
  0.6016770356219395D+00  14  14   1   1
  0.2376343137643757D+00  15   1   1   1
 -0.2156449098683217D+00  15   2   1   1
  0.1383401669883459D+00  15   3   1   1
 -0.1022114466485485D+00  15   6   1   1
  0.1641037434922922D-01  15   7   1   1
  0.5964899293689857D-01  15  10   1   1
  0.9152462440957403D-02  15  11   1   1
  0.3855100735066568D-01  15  12   1   1
  0.5133959328339789D+00  15  15   1   1
 -0.8182240176832216D-01  16   1   1   1
  0.7741382850889458D-01  16   2   1   1
  0.2394196036129520D-01  16   3   1   1
  0.4560589094712196D-01  16   6   1   1
  0.1877039933891600D-01  16   7   1   1
 -0.4562192860276742D-01  16  10   1   1
 -0.1519172521778475D+00  16  11   1   1
  0.7351657220862172D-01  16  12   1   1
 -0.3605772720943853D-01  16  15   1   1
  0.4663111285916610D+00  16  16   1   1
 -0.2018328471012562D-01  17   4   1   1
  0.4156923541137257D-02  17   9   1   1
  0.2902731603934740D-01  17  13   1   1
  0.6452158736607750D+00  17  17   1   1
 -0.2018328471012553D-01  18   5   1   1
  0.4156923541137746D-02  18   8   1   1
  0.2902731603934716D-01  18  14   1   1
  0.6452158736607755D+00  18  18   1   1
  0.7366517737769145D+00  19  19   1   1
  0.7366517737769184D+00  20  20   1   1
  0.1714161281325439D-01  21   1   1   1
 -0.3101825882501168D-01  21   2   1   1
 -0.2228986571463055D-01  21   3   1   1
 -0.1313541353944437D-03  21   6   1   1
  0.8440964282023554D-05  21   7   1   1
 -0.7710000871503010D-02  21  10   1   1
 -0.4785762369754383D-01  21  11   1   1
 -0.2744739657161425D-01  21  12   1   1
  0.4215777152737858D-01  21  15   1   1
  0.1196652648561796D+00  21  16   1   1
  0.6276612561896506D+00  21  21   1   1
  0.2804112224739871D-01  22   5   1   1
 -0.5430369644649483D-02  22   8   1   1
 -0.4089830497705541D-01  22  14   1   1
  0.1426606117794678D+00  22  18   1   1
  0.5359191803025110D+00  22  22   1   1
  0.2804112224739842D-01  23   4   1   1
 -0.5430369644649866D-02  23   9   1   1
 -0.4089830497705518D-01  23  13   1   1
  0.1426606117794682D+00  23  17   1   1
  0.5359191803025114D+00  23  23   1   1
  0.2023858470302844D+00  24   1   1   1
 -0.1467632197701994D+00  24   2   1   1
 -0.4101908202143754D-01  24   3   1   1
 -0.6476085934038923D-01  24   6   1   1
 -0.2502682245527518D-01  24   7   1   1
  0.5393681143641321D-01  24  10   1   1
  0.8890376974542333D-01  24  11   1   1
 -0.1277939038221610D+00  24  12   1   1
  0.1173411441376281D+00  24  15   1   1
 -0.9096830264190481D-01  24  16   1   1
  0.1212761319696801D+00  24  21   1   1
  0.7091501589537377D+00  24  24   1   1
 -0.5090138434533179D+00  25   1   1   1
  0.2414895438575981D+00  25   2   1   1
 -0.2015336867580337D+00  25   3   1   1
  0.6273957807114694D-01  25   6   1   1
 -0.1634321891604193D-01  25   7   1   1
 -0.3309889653795672D-01  25  10   1   1
 -0.3856338336137722D-01  25  11   1   1
 -0.7924672036306049D-01  25  12   1   1
 -0.2917001537394922D+00  25  15   1   1
  0.7063377296756712D-01  25  16   1   1
  0.2543678153325316D-01  25  21   1   1
 -0.1772986218938971D+00  25  24   1   1
  0.1155513807329575D+01  25  25   1   1
  0.8029733973445371D+00  26   1   1   1
 -0.2360778144066363D+00  26   2   1   1
  0.1277481512073114D+00  26   3   1   1
 -0.7064422370302284D-01  26   6   1   1
  0.2748729772031804D-02  26   7   1   1
  0.4509494024173288D-01  26  10   1   1
  0.5740100458395381D-01  26  11   1   1
  0.6630315029161865D-02  26  12   1   1
  0.1894935988801834D+00  26  15   1   1
 -0.7598906477880568D-01  26  16   1   1
  0.2251584441434664D-01  26  21   1   1
  0.2424523318492477D+00  26  24   1   1
 -0.6456115211857019D+00  26  25   1   1
  0.3156299785165838D+01  26  26   1   1
  0.4386321584187763D-01   2   1   2   1
 -0.4877124646116922D-02   2   2   2   1
 -0.1762668731612184D-01   3   1   2   1
  0.9387039575962944D-02   3   2   2   1
 -0.1267148973334782D-01   3   3   2   1
 -0.5952893360882068D-02   4   4   2   1
 -0.5952893360882081D-02   5   5   2   1
  0.1297769833177025D-01   6   1   2   1
 -0.1792861187825968D-02   6   2   2   1
  0.5688137509941331D-03   6   3   2   1
 -0.1976993067943437D-03   6   6   2   1
  0.5883500262738432D-03   7   1   2   1
  0.6293547590519668D-03   7   2   2   1
 -0.1769991191579275D-02   7   3   2   1
  0.2699792072980697D-03   7   6   2   1
 -0.4126072872172792D-03   7   7   2   1
  0.1250328571532950D-02   8   5   2   1
 -0.2649992051936050D-03   8   8   2   1
  0.1250328571532937D-02   9   4   2   1
 -0.2649992051935990D-03   9   9   2   1
 -0.8696830978455002D-02  10   1   2   1
  0.1008474951260034D-02  10   2   2   1
  0.6861991308681723D-03  10   3   2   1
  0.2261151066975181D-03  10   6   2   1
  0.7013652204449194D-04  10   7   2   1
 -0.1343468358464130D-03  10  10   2   1
 -0.1212653129119705D-01  11   1   2   1
  0.1594522948875747D-02  11   2   2   1
  0.3489048365579129D-02  11   3   2   1
  0.6501244976972114D-03  11   6   2   1
  0.3792187513645233D-03  11   7   2   1
 -0.5436153790933616D-03  11  10   2   1
 -0.8671454595822383D-03  11  11   2   1
  0.3386985696660137D-02  12   1   2   1
  0.1935119473992392D-02  12   2   2   1
 -0.6927472237898746D-02  12   3   2   1
  0.1632287011513783D-03  12   6   2   1
 -0.1290790611743383D-02  12   7   2   1
  0.4839425083304870D-03  12  10   2   1
  0.1663206038045700D-02  12  11   2   1
 -0.5760832655186094D-02  12  12   2   1
  0.6973066419585854D-02  13   4   2   1
 -0.1473936167715297D-02  13   9   2   1
 -0.8252128068041155D-02  13  13   2   1
  0.6973066419585860D-02  14   5   2   1
 -0.1473936167715308D-02  14   8   2   1
 -0.8252128068041129D-02  14  14   2   1
 -0.3312050285800876D-01  15   1   2   1
  0.6776305086009399D-02  15   2   2   1
 -0.8210278839631746D-02  15   3   2   1
  0.1434867885972263D-02  15   6   2   1
 -0.9304506077608630D-03  15   7   2   1
 -0.5027544945062145D-03  15  10   2   1
 -0.2336568004402877D-03  15  11   2   1
 -0.4338216719055311D-02  15  12   2   1
 -0.6892740685406887D-02  15  15   2   1
  0.1377322616973100D-01  16   1   2   1
 -0.3265564317909283D-02  16   2   2   1
 -0.3173077766465018D-02  16   3   2   1
 -0.1214192645665155D-02  16   6   2   1
 -0.7347261613312602D-03  16   7   2   1
  0.9995861382414003D-03  16  10   2   1
  0.1122347888337859D-02  16  11   2   1
 -0.2690074865782506D-02  16  12   2   1
  0.1231367984000586D-02  16  15   2   1
  0.5333474487339892D-03  16  16   2   1
  0.5438337293200229D-02  17   4   2   1
 -0.9094295802326456D-03  17   9   2   1
 -0.3865227750346367D-02  17  13   2   1
  0.1974830565251996D-03  17  17   2   1
  0.5438337293200232D-02  18   5   2   1
 -0.9094295802326499D-03  18   8   2   1
 -0.3865227750346362D-02  18  14   2   1
  0.1974830565251976D-03  18  18   2   1
 -0.2102057511922029D-02  19  19   2   1
 -0.2102057511922183D-02  20  20   2   1
 -0.2315016547597980D-02  21   1   2   1
 -0.1571179924182033D-02  21   2   2   1
 -0.4794309463487741D-02  21   3   2   1
 -0.1031619789280644D-02  21   6   2   1
 -0.9221609862063878D-03  21   7   2   1
  0.1176181190421608D-02  21  10   2   1
  0.2701830859478819D-02  21  11   2   1
 -0.3350083635557840D-02  21  12   2   1
 -0.5971155958845857D-03  21  15   2   1
 -0.2500791803532869D-02  21  16   2   1
  0.2561956999356789D-03  21  21   2   1
  0.1778552401322244D-02  22   5   2   1
 -0.3313007741947688D-03  22   8   2   1
 -0.1435487285306268D-02  22  14   2   1
 -0.3316371910276350D-02  22  18   2   1
  0.1600383931075627D-02  22  22   2   1
  0.1778552401322259D-02  23   4   2   1
 -0.3313007741947703D-03  23   9   2   1
 -0.1435487285306285D-02  23  13   2   1
 -0.3316371910276364D-02  23  17   2   1
  0.1600383931075605D-02  23  23   2   1
 -0.3480218017223288D-01  24   1   2   1
  0.7070056806480145D-02  24   2   2   1
 -0.1312270564463111D-02  24   3   2   1
  0.2075638104515000D-02  24   6   2   1
  0.3082913854765489D-03  24   7   2   1
 -0.1402837246228546D-02  24  10   2   1
 -0.1612151650664406D-02  24  11   2   1
  0.1808282012393935D-02  24  12   2   1
 -0.4670169183501987D-02  24  15   2   1
  0.3969368494406347D-03  24  16   2   1
 -0.2355786106176797D-02  24  21   2   1
 -0.4473961713202135D-02  24  24   2   1
  0.7339752045570783D-01  25   1   2   1
 -0.1722231924016262D-01  25   2   2   1
  0.1520596739970131D-01  25   3   2   1
 -0.4170311468575808D-02  25   6   2   1
  0.1393364380427671D-02  25   7   2   1
  0.2127605677464499D-02  25  10   2   1
  0.2087819481949638D-02  25  11   2   1
  0.6146730814415467D-02  25  12   2   1
  0.1627828882835290D-01  25  15   2   1
 -0.4612994930441530D-02  25  16   2   1
  0.7252628267225938D-03  25  21   2   1
  0.1011047338538769D-01  25  24   2   1
 -0.4172232393764976D-01  25  25   2   1
 -0.1386397664416405D+00  26   1   2   1
  0.3376452959983141D-01  26   2   2   1
 -0.2056783203629182D-01  26   3   2   1
  0.9378795587507311D-02  26   6   2   1
 -0.8974919986164244D-03  26   7   2   1
 -0.5681368022966186D-02  26  10   2   1
 -0.6945287254856520D-02  26  11   2   1
 -0.3446542755742763D-02  26  12   2   1
 -0.2920434324356801D-01  26  15   2   1
  0.9576826019826658D-02  26  16   2   1
 -0.2557424331457803D-02  26  21   2   1
 -0.2645654564036556D-01  26  24   2   1
  0.7529638230961905D-01  26  25   2   1
 -0.2701009893865629D+00  26  26   2   1
  0.6474667243135894D+00   2   2   2   2
  0.2000158429021081D-01   3   1   2   2
  0.6836596225902034D-01   3   2   2   2
  0.5289877803758742D+00   3   3   2   2
  0.5106324122792485D+00   4   4   2   2
  0.5106324122792485D+00   5   5   2   2
  0.8349065364438631D-03   6   1   2   2
  0.5913881310335742D-01   6   2   2   2
  0.6592030507066436D-02   6   3   2   2
  0.2294187840906259D+00   6   6   2   2
  0.3239589648951529D-02   7   1   2   2
  0.1477527652799523D-01   7   2   2   2
  0.2712796786846084D-01   7   3   2   2
  0.2455053494689727D-01   7   6   2   2
  0.1312642841396062D+00   7   7   2   2
 -0.4493577105828535D-01   8   5   2   2
  0.1179020090541954D+00   8   8   2   2
 -0.4493577105828546D-01   9   4   2   2
  0.1179020090541953D+00   9   9   2   2
 -0.2021268500697311D-02  10   1   2   2
 -0.3724994096715143D-01  10   2   2   2
 -0.8455954518610413D-02  10   3   2   2
 -0.6457738329168652D-01  10   6   2   2
 -0.2703030159658114D-01  10   7   2   2
  0.1429028335463861D+00  10  10   2   2
 -0.4936288603583103D-02  11   1   2   2
 -0.2765417848811623D-01  11   2   2   2
  0.1373143031016690D-01  11   3   2   2
 -0.5613630714395115D-01  11   6   2   2
 -0.2191032571053550D-01  11   7   2   2
  0.8688545428694039D-01  11  10   2   2
  0.3703526771486205D+00  11  11   2   2
  0.1367728688404769D-01  12   1   2   2
  0.4594452570673856D-01  12   2   2   2
  0.8993555630706229D-01  12   3   2   2
  0.5253742320515925D-01  12   6   2   2
  0.6054051940039647D-01  12   7   2   2
 -0.5761761261056483D-01  12  10   2   2
 -0.6027212148784827D-01  12  11   2   2
  0.3438503194697182D+00  12  12   2   2
 -0.1404303195694608D+00  13   4   2   2
  0.6153429971414315D-01  13   9   2   2
  0.4025831300297396D+00  13  13   2   2
 -0.1404303195694607D+00  14   5   2   2
  0.6153429971414340D-01  14   8   2   2
  0.4025831300297392D+00  14  14   2   2
  0.8608715821805531D-02  15   1   2   2
 -0.8826124542117952D-01  15   2   2   2
  0.3076054765127965D-01  15   3   2   2
 -0.6884132936320157D-01  15   6   2   2
  0.6487726744587729D-02  15   7   2   2
  0.4393631505807160D-01  15  10   2   2
 -0.5022454064416367D-02  15  11   2   2
 -0.1824409232686242D-01  15  12   2   2
  0.3922969080866843D+00  15  15   2   2
  0.2220217948990550D-02  16   1   2   2
 -0.2213895283518793D-01  16   2   2   2
 -0.5523136844527806D-01  16   3   2   2
  0.1367304661990766D-01  16   6   2   2
  0.6345662907834958D-03  16   7   2   2
 -0.2096329601329611D-01  16  10   2   2
 -0.1301890019465753D+00  16  11   2   2
  0.1475675019798989D-01  16  12   2   2
 -0.5340743007959059D-02  16  15   2   2
  0.5028969595041920D+00  16  16   2   2
  0.6006421960278897D-01  17   4   2   2
 -0.7654678426888889D-02  17   9   2   2
 -0.1346237692141784D-01  17  13   2   2
  0.5924104504864079D+00  17  17   2   2
  0.6006421960278902D-01  18   5   2   2
 -0.7654678426888556D-02  18   8   2   2
 -0.1346237692141797D-01  18  14   2   2
  0.5924104504864076D+00  18  18   2   2
  0.5655014539432325D+00  19  19   2   2
  0.5655014539432344D+00  20  20   2   2
 -0.7322313150969538D-03  21   1   2   2
 -0.3862278919767681D-01  21   2   2   2
 -0.4796729030020459D-01  21   3   2   2
 -0.1666953795262831D-01  21   6   2   2
 -0.1037622446013886D-01  21   7   2   2
  0.1370588699199756D-01  21  10   2   2
  0.2163829575023806D-01  21  11   2   2
 -0.5693921836664215D-01  21  12   2   2
  0.2882154102693597D-01  21  15   2   2
  0.2206002792552833D-01  21  16   2   2
  0.5765367460510811D+00  21  21   2   2
  0.2184101727520513D-01  22   5   2   2
 -0.5289294571270793D-02  22   8   2   2
 -0.4058383166699540D-01  22  14   2   2
 -0.4606535072412876D-02  22  18   2   2
  0.5644892984422207D+00  22  22   2   2
  0.2184101727520514D-01  23   4   2   2
 -0.5289294571271154D-02  23   9   2   2
 -0.4058383166699546D-01  23  13   2   2
 -0.4606535072412987D-02  23  17   2   2
  0.5644892984422205D+00  23  23   2   2
 -0.5570817570924574D-02  24   1   2   2
 -0.3715363833178702D-02  24   2   2   2
  0.5678818535652386D-03  24   3   2   2
 -0.1444536828609052D-01  24   6   2   2
 -0.6900149570450479D-02  24   7   2   2
  0.1502837123265146D-01  24  10   2   2
  0.3710088591083978D-01  24  11   2   2
 -0.4317497879944026D-01  24  12   2   2
  0.3730311747398452D-01  24  15   2   2
 -0.9506463883403106D-01  24  16   2   2
  0.6504524231080416D-02  24  21   2   2
  0.6137652466680590D+00  24  24   2   2
 -0.1960796724257129D-01  25   1   2   2
  0.3266739709310040D-01  25   2   2   2
 -0.2827190214210990D-01  25   3   2   2
  0.6469036064302996D-02  25   6   2   2
 -0.2214200792016414D-02  25   7   2   2
 -0.1285278589697689D-02  25  10   2   2
  0.4366886046060703D-03  25  11   2   2
 -0.1679261784189598D-01  25  12   2   2
 -0.8132367162200269D-01  25  15   2   2
 -0.1451452497934999D-01  25  16   2   2
  0.1434138957248578D-01  25  21   2   2
 -0.2572714153343150D-01  25  24   2   2
  0.5892449667993165D+00  25  25   2   2
  0.2283571961033842D-01  26   1   2   2
 -0.1718917692642694D-02  26   2   2   2
  0.3146243234837580D-02  26   3   2   2
 -0.1324525534554990D-02  26   6   2   2
  0.6223482525090265D-03  26   7   2   2
  0.1013633508940927D-02  26  10   2   2
 -0.1444125840317917D-03  26  11   2   2
  0.1107848941340132D-02  26  12   2   2
 -0.9745294417218824D-02  26  15   2   2
 -0.2280277524579741D-02  26  16   2   2
  0.1315976382669223D-02  26  21   2   2
  0.1363077256723809D-01  26  24   2   2
 -0.5169731429871287D-01  26  25   2   2
  0.7630442268541362D+00  26  26   2   2
  0.2750571340562610D-01   3   1   3   1
  0.1361794617237971D-01   3   2   3   1
 -0.7889389664346498D-02   3   3   3   1
  0.3683169833538395D-02   4   4   3   1
  0.3683169833538395D-02   5   5   3   1
 -0.2529973890455210D-02   6   1   3   1
  0.5463671821914564D-02   6   2   3   1
  0.9617255054191034D-03   6   3   3   1
  0.2965820658402767D-02   6   6   3   1
  0.3720737229524958D-02   7   1   3   1
  0.2560592644854063D-02   7   2   3   1
 -0.7348937588920881D-03   7   3   3   1
  0.1519599360849920D-02   7   6   3   1
 -0.2502360911723967D-03   7   7   3   1
 -0.7412064491001463D-03   8   5   3   1
  0.1491185738599819D-03   8   8   3   1
 -0.7412064491001582D-03   9   4   3   1
  0.1491185738599886D-03   9   9   3   1
 -0.8605754764125738D-04  10   1   3   1
 -0.4407869601329576D-02  10   2   3   1
  0.3396324650986307D-03  10   3   3   1
 -0.2051707201354694D-02  10   6   3   1
 -0.7335860034354783D-03  10   7   3   1
  0.1790788258238439D-02  10  10   3   1
 -0.2918609409518005D-02  11   1   3   1
 -0.6126590146981118D-02  11   2   3   1
  0.4304921759744618D-02  11   3   3   1
 -0.2475240767619861D-02  11   6   3   1
 -0.8648852489808836D-03  11   7   3   1
  0.2154489280168797D-02  11  10   3   1
  0.3959697422653308D-02  11  11   3   1
  0.1616201548362117D-01  12   1   3   1
  0.9611275227411138D-02  12   2   3   1
 -0.1082248063142036D-02  12   3   3   1
  0.4231959686469949D-02  12   6   3   1
  0.3242308904375461D-03  12   7   3   1
 -0.2918784226981614D-02  12  10   3   1
 -0.4040385690106720D-02  12  11   3   1
  0.1405737030460435D-02  12  12   3   1
 -0.3937337679846730D-02  13   4   3   1
  0.8056929672799822D-03  13   9   3   1
  0.4373146081499976D-02  13  13   3   1
 -0.3937337679846727D-02  14   5   3   1
  0.8056929672799724D-03  14   8   3   1
  0.4373146081499951D-02  14  14   3   1
  0.1978918513495486D-01  15   1   3   1
 -0.6611532699821034D-02  15   2   3   1
 -0.6521278063135898D-02  15   3   3   1
 -0.2891085021571419D-02  15   6   3   1
 -0.1768159635903983D-02  15   7   3   1
  0.2689783493614279D-02  15  10   3   1
  0.4253299352352160D-02  15  11   3   1
 -0.8817632386431861D-02  15  12   3   1
  0.2416796142284620D-02  15  15   3   1
 -0.5519256411614130D-03  16   1   3   1
  0.2854256885288766D-02  16   2   3   1
 -0.6905325675483881D-02  16   3   3   1
  0.1013922812908873D-02  16   6   3   1
 -0.6092486419023636D-03  16   7   3   1
 -0.7307219180391450D-03  16  10   3   1
 -0.2652325239949871D-02  16  11   3   1
 -0.1091398058542989D-02  16  12   3   1
 -0.3430076778514259D-02  16  15   3   1
  0.6927940678009134D-02  16  16   3   1
  0.1220092891903809D-01  17   4   3   1
 -0.1950889095868650D-02  17   9   3   1
 -0.7687194878427483D-02  17  13   3   1
  0.3983547760730524D-02  17  17   3   1
  0.1220092891903811D-01  18   5   3   1
 -0.1950889095868658D-02  18   8   3   1
 -0.7687194878427483D-02  18  14   3   1
  0.3983547760730502D-02  18  18   3   1
  0.5014874160839799D-03  19  19   3   1
  0.5014874160840952D-03  20  20   3   1
  0.1987321094209427D-02  21   1   3   1
 -0.5639913466219602D-02  21   2   3   1
 -0.1166336065243429D-01  21   3   3   1
 -0.2958784151230560D-02  21   6   3   1
 -0.2279408649409888D-02  21   7   3   1
  0.3106519792966422D-02  21  10   3   1
  0.6538225491610102D-02  21  11   3   1
 -0.8239331244697574D-02  21  12   3   1
  0.6746173877575216D-04  21  15   3   1
 -0.5065493033742938D-02  21  16   3   1
  0.4538514428521160D-02  21  21   3   1
  0.7695437532634698D-02  22   5   3   1
 -0.1488053825203146D-02  22   8   3   1
 -0.7127882678951088D-02  22  14   3   1
 -0.6040421714013054D-02  22  18   3   1
  0.6648055486928412D-02  22  22   3   1
  0.7695437532634715D-02  23   4   3   1
 -0.1488053825203148D-02  23   9   3   1
 -0.7127882678951117D-02  23  13   3   1
 -0.6040421714013073D-02  23  17   3   1
  0.6648055486928372D-02  23  23   3   1
  0.2284273338036488D-02  24   1   3   1
 -0.9783384674798088D-02  24   2   3   1
 -0.6560202985539263D-02  24   3   3   1
 -0.4923043865793965D-02  24   6   3   1
 -0.2370184360382422D-02  24   7   3   1
  0.4494555682854277D-02  24  10   3   1
  0.8912206074882207D-02  24  11   3   1
 -0.9894372438109948D-02  24  12   3   1
  0.5168675326322298D-02  24  15   3   1
 -0.1054464035567481D-01  24  16   3   1
 -0.2928189157037592D-02  24  21   3   1
  0.2200197231824541D-01  24  24   3   1
 -0.4818413321850786D-01  25   1   3   1
  0.1047601948966257D-01  25   2   3   1
  0.7591029525193104D-03  25   3   3   1
  0.3751200453957509D-02  25   6   3   1
  0.1220938773956091D-02  25   7   3   1
 -0.2870224948750584D-02  25  10   3   1
 -0.4204625314020841D-02  25  11   3   1
  0.6295936606627309D-02  25  12   3   1
 -0.5854278564532857D-02  25  15   3   1
  0.2715329750735711D-02  25  16   3   1
 -0.1115659101228536D-02  25  21   3   1
 -0.1166530210153526D-01  25  24   3   1
  0.1192054768141785D-01  25  25   3   1
  0.7575852488969739D-01  26   1   3   1
 -0.2054975403543300D-01  26   2   3   1
  0.5741769595440043D-02  26   3   3   1
 -0.6755689007208917D-02  26   6   3   1
 -0.8811933386535898D-03  26   7   3   1
  0.4832573897116017D-02  26  10   3   1
  0.7298693294936459D-02  26  11   3   1
 -0.4574725737807184D-02  26  12   3   1
  0.1560145337481736D-01  26  15   3   1
 -0.7884233381871922D-02  26  16   3   1
  0.4594718348560017D-03  26  21   3   1
  0.2219306907698827D-01  26  24   3   1
 -0.3814394077909612D-01  26  25   3   1
  0.1473525175625244D+00  26  26   3   1
  0.1003412676564826D+00   3   2   3   2
 -0.4753663642417237D-01   3   3   3   2
 -0.2662578197790167D-01   4   4   3   2
 -0.2662578197790177D-01   5   5   3   2
  0.4681627598842514D-02   6   1   3   2
  0.1992395747952251D-02   6   2   3   2
 -0.4878017143711027D-02   6   3   3   2
  0.1743937228854651D-01   6   6   3   2
  0.3246388856051066D-02   7   1   3   2
  0.5804514055492020D-02   7   2   3   2
 -0.7873709017128239D-02   7   3   3   2
  0.1310939293759858D-01   7   6   3   2
 -0.3783513509450488D-02   7   7   3   2
  0.3949531460982407D-02   8   5   3   2
 -0.1141245097923994D-02   8   8   3   2
  0.3949531460982333D-02   9   4   3   2
 -0.1141245097923961D-02   9   9   3   2
 -0.4492738993093878D-02  10   1   3   2
  0.4950073803306530D-03  10   2   3   2
  0.1230994679276366D-01  10   3   3   2
 -0.1073326844735608D-01  10   6   3   2
 -0.4836586032069790D-02  10   7   3   2
  0.1160920040821890D-01  10  10   3   2
 -0.8158522390940722D-02  11   1   3   2
  0.1971246090793972D-01  11   2   3   2
  0.5078727846544915D-01  11   3   3   2
 -0.1061540124504726D-01  11   6   3   2
 -0.6358770041763103D-02  11   7   3   2
  0.1315194653605626D-01  11  10   3   2
  0.3524152830001056D-01  11  11   3   2
  0.1405646883934786D-01  12   1   3   2
  0.1768997534357540D-01  12   2   3   2
 -0.1801258992003837D-01  12   3   3   2
  0.2199275680224918D-01  12   6   3   2
 -0.2432251134855132D-02  12   7   3   2
 -0.1515079995107247D-01  12  10   3   2
 -0.2603853453014473D-01  12  11   3   2
 -0.1486236248069294D-01  12  12   3   2
  0.1548733335680079D-01  13   4   3   2
 -0.3868006511157188D-02  13   9   3   2
 -0.2044407945769467D-01  13  13   3   2
  0.1548733335680083D-01  14   5   3   2
 -0.3868006511157250D-02  14   8   3   2
 -0.2044407945769471D-01  14  14   3   2
 -0.1590975714704359D-02  15   1   3   2
  0.2600741626699321D-03  15   2   3   2
 -0.2641821941304982D-01  15   3   3   2
  0.9131356075560253D-04  15   6   3   2
 -0.5604706817366972D-02  15   7   3   2
  0.3615554805849646D-02  15  10   3   2
  0.6678956765065386D-02  15  11   3   2
 -0.4192314270339356D-01  15  12   3   2
 -0.1400299879106429D-01  15  15   3   2
  0.5812276002463212D-02  16   1   3   2
 -0.4179050232002179D-01  16   2   3   2
 -0.5794431013406494D-01  16   3   3   2
 -0.7361570597764027D-02  16   6   3   2
 -0.8293619284284490D-02  16   7   3   2
  0.2683071880972282D-02  16  10   3   2
 -0.2369366938939521D-01  16  11   3   2
 -0.1746595729734051D-01  16  12   3   2
  0.4569980871717846D-02  16  15   3   2
  0.9427290047800474D-01  16  16   3   2
  0.6836486166091224D-01  17   4   3   2
 -0.9104271859969704D-02  17   9   3   2
 -0.2644846290024726D-01  17  13   3   2
  0.3980199070691477D-01  17  17   3   2
  0.6836486166091228D-01  18   5   3   2
 -0.9104271859969757D-02  18   8   3   2
 -0.2644846290024728D-01  18  14   3   2
  0.3980199070691436D-01  18  18   3   2
 -0.4399440300372992D-01  19  19   3   2
 -0.4399440300372941D-01  20  20   3   2
 -0.1729373037240183D-02  21   1   3   2
 -0.2425575903799160D-01  21   2   3   2
 -0.3077141098883031D-01  21   3   3   2
 -0.1850816145194803D-01  21   6   3   2
 -0.1058729787083502D-01  21   7   3   2
  0.2062111492714924D-01  21  10   3   2
  0.5566359513206376D-01  21  11   3   2
 -0.3301083323790849D-01  21  12   3   2
  0.2235976396670648D-02  21  15   3   2
 -0.5940323733409503D-01  21  16   3   2
  0.4686228830337709D-01  21  21   3   2
  0.1448085953069168D-01  22   5   3   2
 -0.4109307242757071D-02  22   8   3   2
 -0.2221296251775023D-01  22  14   3   2
 -0.9317025982011340D-01  22  18   3   2
  0.8857697245309534D-01  22  22   3   2
  0.1448085953069183D-01  23   4   3   2
 -0.4109307242757093D-02  23   9   3   2
 -0.2221296251775037D-01  23  13   3   2
 -0.9317025982011361D-01  23  17   3   2
  0.8857697245309487D-01  23  23   3   2
 -0.1466072403066635D-01  24   1   3   2
  0.1684734996960925D-01  24   2   3   2
  0.3832787236117056D-02  24   3   3   2
  0.7970098240636279D-03  24   6   3   2
 -0.5278314238282732D-03  24   7   3   2
  0.1316789655382337D-02  24  10   3   2
  0.1241351405938402D-01  24  11   3   2
 -0.8938496549577336D-03  24  12   3   2
 -0.5172167457794658D-02  24  15   3   2
 -0.5483948511428167D-01  24  16   3   2
 -0.6929085429991121D-01  24  21   3   2
  0.1027827704039003D+00  24  24   3   2
 -0.5649765645258931D-05  25   1   3   2
 -0.1298709932398885D-02  25   2   3   2
  0.4772493451144680D-02  25   3   3   2
 -0.1645364931894207D-02  25   6   3   2
  0.1019282316333549D-02  25   7   3   2
  0.2037778893739115D-02  25  10   3   2
  0.7248011423387599D-02  25  11   3   2
  0.8018776044563011D-02  25  12   3   2
  0.1294477260773991D-01  25  15   3   2
 -0.2800009186588058D-01  25  16   3   2
 -0.1032566814663841D-01  25  21   3   2
  0.1632444991276924D-01  25  24   3   2
 -0.4887169550671167D-01  25  25   3   2
 -0.1291084173686546D-01  26   1   3   2
  0.2961412988881293D-02  26   2   3   2
  0.1619963776137136D-02  26   3   3   2
  0.1276061868477658D-02  26   6   3   2
  0.6880102713182838D-03  26   7   3   2
 -0.9396547760603736D-03  26  10   3   2
 -0.1235001088287641D-02  26  11   3   2
  0.2742290211751466D-02  26  12   3   2
 -0.3385299599766283D-05  26  15   3   2
 -0.3331509836968319D-03  26  16   3   2
 -0.3054063019026303D-02  26  21   3   2
 -0.6358449779148520D-02  26  24   3   2
  0.6925589915557041D-02  26  25   3   2
 -0.6781867929968985D-01  26  26   3   2
  0.6067252925260047D+00   3   3   3   3
  0.4944029361462536D+00   4   4   3   3
  0.4944029361462537D+00   5   5   3   3
 -0.5149577132552765D-02   6   1   3   3
  0.4101583859439080D-01   6   2   3   3
  0.1049832024500585D-01   6   3   3   3
  0.2069769701701943D+00   6   6   3   3
 -0.2574260251411228D-02   7   1   3   3
  0.2778541606975977D-02   7   2   3   3
  0.3656091211705609D-01   7   3   3   3
  0.9453012966132946D-02   7   6   3   3
  0.1375451235916922D+00   7   7   3   3
 -0.4275656107318680D-01   8   5   3   3
  0.1173861614082383D+00   8   8   3   3
 -0.4275656107318677D-01   9   4   3   3
  0.1173861614082381D+00   9   9   3   3
  0.4576652366714279D-02  10   1   3   3
 -0.2267628746433919D-01  10   2   3   3
 -0.2231585980953644D-01  10   3   3   3
 -0.5174874291185499D-01  10   6   3   3
 -0.2157609015863597D-01  10   7   3   3
  0.1297294569309257D+00  10  10   3   3
  0.8375952710512165D-02  11   1   3   3
 -0.1229378945245137D-01  11   2   3   3
 -0.4844144232256264D-01  11   3   3   3
 -0.4723949204771742D-01  11   6   3   3
 -0.1523051608625663D-01  11   7   3   3
  0.7523245779499614D-01  11  10   3   3
  0.3402510320872344D+00  11  11   3   3
 -0.1128134338250942D-01  12   1   3   3
  0.1098489841740434D-01  12   2   3   3
  0.1075728031362590D+00  12   3   3   3
  0.2275300424457977D-01  12   6   3   3
  0.6511069873983798D-01  12   7   3   3
 -0.3836998552448634D-01  12  10   3   3
 -0.2964463802924380D-01  12  11   3   3
  0.3678965084075664D+00  12  12   3   3
 -0.1336899565004032D+00  13   4   3   3
  0.6005499622217137D-01  13   9   3   3
  0.3959658447459055D+00  13  13   3   3
 -0.1336899565004032D+00  14   5   3   3
  0.6005499622217168D-01  14   8   3   3
  0.3959658447459052D+00  14  14   3   3
  0.4433849291514377D-02  15   1   3   3
 -0.7902869420073531D-01  15   2   3   3
  0.6834482619579368D-01  15   3   3   3
 -0.6010660127512951D-01  15   6   3   3
  0.1596296720201985D-01  15   7   3   3
  0.3407203844367849D-01  15  10   3   3
 -0.1451825053055697D-01  15  11   3   3
  0.4592661669434582D-01  15  12   3   3
  0.3906729626665453D+00  15  15   3   3
 -0.7955610883389487D-02  16   1   3   3