 &FCI NORB=32,NELEC=7,MS2=0
  ORBSYM=1,1,1,4,3,1,4,1,3,1,1,4,3,1,2,1,4,1,3,4,1,3,1,4,3,1,2,1,1,4,3,1,
  ISYM=1 UHF=.FALSE.
 &END
  0.3510845021518273D+01   1   1   1   1
  0.2644094749641870D+00   2   1   1   1
  0.7257287724455059D+00   2   2   1   1
  0.1798308666427487D+00   3   1   1   1
  0.7740426919514307D-01   3   2   1   1
  0.7171989426405012D+00   3   3   1   1
  0.7572237573137658D+00   4   4   1   1
  0.5052395613681799D+00   5   5   1   1
  0.4502194140204019D-01   6   1   1   1
  0.6538218637376317D-01   6   2   1   1
  0.2134794284629139D-02   6   3   1   1
  0.1619296799670970D+00   6   6   1   1
 -0.1362012841143188D+00   7   4   1   1
  0.2191044178834223D+00   7   7   1   1
 -0.3358680519351371D-01   8   1   1   1
  0.5701857884274197D-03   8   2   1   1
 -0.9966295606187038D-01   8   3   1   1
  0.2909929910956288D-02   8   6   1   1
  0.1988933131077402D+00   8   8   1   1
  0.2343139704517826D+00   9   5   1   1
  0.3510059334795192D+00   9   9   1   1
 -0.9602125114725885D-01  10   1   1   1
 -0.1102009083920958D+00  10   2   1   1
 -0.5426552595316301D-01  10   3   1   1
 -0.6057000393743672D-01  10   6   1   1
  0.2001973800289239D-01  10   8   1   1
  0.2317044069609849D+00  10  10   1   1
 -0.5546783684456009D-01  11   1   1   1
 -0.1175919646170304D+00  11   2   1   1
  0.1014966880959954D+00  11   3   1   1
 -0.4272641003099742D-01  11   6   1   1
 -0.3169720026726724D-01  11   8   1   1
  0.3070469847898322D-01  11  10   1   1
  0.3654759949407337D+00  11  11   1   1
  0.6921446406977107D-01  12   4   1   1
 -0.3259738881364668D-01  12   7   1   1
  0.2971302170336320D+00  12  12   1   1
  0.5890896296584605D-01  13   5   1   1
  0.5563557926427458D-01  13   9   1   1
  0.2976169398941652D+00  13  13   1   1
  0.7281729085048922D-02  14   1   1   1
  0.1400020850003676D-01  14   2   1   1
 -0.7290539382965044D-02  14   3   1   1
  0.3878533166316533D-02  14   6   1   1
  0.7685979679105625D-02  14   8   1   1
 -0.6519672026561306D-02  14  10   1   1
  0.5328190792360439D-02  14  11   1   1
  0.3276435217901809D+00  14  14   1   1
  0.3278926469734931D+00  15  15   1   1
 -0.7115339594023809D-01  16   1   1   1
 -0.9338174428642274D-01  16   2   1   1
  0.2097128804898677D-01  16   3   1   1
 -0.2598432270798832D-01  16   6   1   1
 -0.3353147378912142D-01  16   8   1   1
  0.6591369288427601D-01  16  10   1   1
  0.7806459036929503D-03  16  11   1   1
  0.1186530153400450D-03  16  14   1   1
  0.3093940283491434D+00  16  16   1   1
 -0.1333629680502894D+00  17   4   1   1
  0.6238393840106728D-01  17   7   1   1
  0.2256069062442086D-01  17  12   1   1
  0.3474638488422256D+00  17  17   1   1
  0.1130086061955197D+00  18   1   1   1
  0.1010380747296124D+00  18   2   1   1
  0.5062291704182274D-01  18   3   1   1
  0.2621736614394056D-01  18   6   1   1
 -0.1901821716971303D-01  18   8   1   1
 -0.6090211545913458D-01  18  10   1   1
 -0.8194038018369806D-01  18  11   1   1
  0.2807299091699467D-02  18  14   1   1
  0.1758095976263641D-02  18  16   1   1
  0.3185415730531463D+00  18  18   1   1
 -0.7708941661822394D-01  19   5   1   1
 -0.8202547099097804D-01  19   9   1   1
  0.2290958855130257D-01  19  13   1   1
  0.3281287574113527D+00  19  19   1   1
  0.2994043746894112D+00  20   4   1   1
 -0.1241907900805526D+00  20   7   1   1
  0.7974554886053735D-01  20  12   1   1
 -0.1299153360880595D+00  20  17   1   1
  0.6285198145467048D+00  20  20   1   1
 -0.5852648512265347D-01  21   1   1   1
  0.6432072990840240D-01  21   2   1   1
 -0.2690392331682481D+00  21   3   1   1
  0.1919320115548605D-01  21   6   1   1
  0.9228001396769546D-01  21   8   1   1
  0.8664980025975516D-02  21  10   1   1
 -0.1870307297435590D+00  21  11   1   1
  0.1067472912521703D-01  21  14   1   1
 -0.5046958289159326D-01  21  16   1   1
  0.2018844332127916D-01  21  18   1   1
  0.7022797325392517D+00  21  21   1   1
 -0.2374652517068998D+00  22   5   1   1
 -0.2325369985847485D+00  22   9   1   1
 -0.8964021645548602D-01  22  13   1   1
  0.1198036253847804D+00  22  19   1   1
  0.7595538633388360D+00  22  22   1   1
  0.1716642021127273D+00  23   1   1   1
  0.1344862792099578D+00  23   2   1   1
  0.1030372410847635D+00  23   3   1   1
  0.2684196312732959D-01  23   6   1   1
 -0.3419698325115646D-01  23   8   1   1
 -0.8046954801248318D-01  23  10   1   1
 -0.7467096609513442D-01  23  11   1   1
  0.6365928066813520D-04  23  14   1   1
 -0.2030230071442080D-01  23  16   1   1
  0.8606740664112195D-01  23  18   1   1
 -0.2039376142490338D-01  23  21   1   1
  0.4584099111582385D+00  23  23   1   1
  0.1797140776969513D-01  24   4   1   1
 -0.5690964082560747D-02  24   7   1   1
  0.7925783105768443D-01  24  12   1   1
  0.4530991917887644D-01  24  17   1   1
  0.4362046189910446D-01  24  20   1   1
  0.5403107221305673D+00  24  24   1   1
  0.1324488134796151D-01  25   5   1   1
  0.9096530836066799D-02  25   9   1   1
  0.7481022200917692D-01  25  13   1   1
  0.4321999190929518D-01  25  19   1   1
 -0.4693933512134270D-01  25  22   1   1
  0.5407317730734054D+00  25  25   1   1
 -0.1334428894182375D+00  26   1   1   1
 -0.1357148235373914D+00  26   2   1   1
 -0.3804397436498742D-01  26   3   1   1
 -0.2603996926376439D-01  26   6   1   1
  0.5489543770924331D-02  26   8   1   1
  0.5792883310621209D-01  26  10   1   1
  0.1538943482038947D-01  26  11   1   1
 -0.5278535401991644D-01  26  14   1   1
  0.1117279481269435D+00  26  16   1   1
 -0.3300195037579083D-01  26  18   1   1
  0.1841661063173176D-01  26  21   1   1
 -0.4727284102111970D-01  26  23   1   1
  0.5582655915060852D+00  26  26   1   1
 -0.9691865515676018D-01  27  15   1   1
  0.6182090597870100D+00  27  27   1   1
  0.5349455085109574D-01  28   1   1   1
  0.5293726688668277D-01  28   2   1   1
  0.1633834205946209D-01  28   3   1   1
  0.1088389949969093D-01  28   6   1   1
 -0.4423044518435655D-02  28   8   1   1
 -0.2377084919344960D-01  28  10   1   1
 -0.1298484817059307D-01  28  11   1   1
 -0.8256875888673890D-01  28  14   1   1
 -0.5442142017799702D-01  28  16   1   1
  0.1392371407909052D-01  28  18   1   1
 -0.8238225735099906D-02  28  21   1   1
  0.2350307488244935D-01  28  23   1   1
  0.2516649032125870D-01  28  26   1   1
  0.6071553919906217D+00  28  28   1   1
 -0.1092840756637529D+00  29   1   1   1
 -0.8219663810394992D-01  29   2   1   1
 -0.4180197637426358D-01  29   3   1   1
 -0.2099535190638662D-01  29   6   1   1
  0.7538848125059021D-02  29   8   1   1
  0.3961305245434296D-01  29  10   1   1
  0.5751171377140121D-01  29  11   1   1
 -0.2041453297224327D-03  29  14   1   1
  0.1092717784870875D-01  29  16   1   1
 -0.1129638289503910D+00  29  18   1   1
 -0.5947363987080805D-01  29  21   1   1
 -0.9921953241917950D-01  29  23   1   1
 -0.1590494774272505D-01  29  26   1   1
  0.1424633147632620D-01  29  28   1   1
  0.5733396202160480D+00  29  29   1   1
 -0.4139234003273942D-01  30   4   1   1
  0.1008225232724538D-01  30   7   1   1
  0.1519262129265082D-03  30  12   1   1
  0.7626764909043968D-01  30  17   1   1
 -0.2945506594999923D-01  30  20   1   1
  0.9999013182963881D-01  30  24   1   1
  0.4968103324735036D+00  30  30   1   1
 -0.2931174354236860D-01  31   5   1   1
 -0.2024694336445862D-01  31   9   1   1
 -0.1957546110646188D-02  31  13   1   1
  0.7309867074997022D-01  31  19   1   1
  0.4983429861889006D-01  31  22   1   1
  0.1018517413271556D+00  31  25   1   1
  0.5042748678271930D+00  31  31   1   1
  0.1032227454411561D+00  32   1   1   1
  0.1017382284092057D+00  32   2   1   1
 -0.7446257657401341D-01  32   3   1   1
  0.2483365005812914D-01  32   6   1   1
  0.2287419320398188D-01  32   8   1   1
 -0.3460134310975360D-01  32  10   1   1
 -0.9138346054063910D-01  32  11   1   1
  0.9473680041095514D-02  32  14   1   1
 -0.6045940679640567D-01  32  16   1   1
  0.3605709390305993D-01  32  18   1   1
  0.2404513469483551D+00  32  21   1   1
  0.6660945296203778D-01  32  23   1   1
 -0.1123650371893900D+00  32  26   1   1
  0.4261806792406700D-01  32  28   1   1
 -0.1964975669027613D-01  32  29   1   1
  0.6750542744132282D+00  32  32   1   1
  0.3435852537071957D-01   2   1   2   1
  0.6932518250330410D-03   2   2   2   1
  0.1726406421886514D-01   3   1   2   1
  0.7698488563172337D-02   3   2   2   1
  0.1130409085457712D-01   3   3   2   1
  0.5935749097745307D-02   4   4   2   1
  0.2426891212099772D-02   5   5   2   1
  0.6051674174056791D-02   6   1   2   1
  0.4435339039736623D-03   6   2   2   1
  0.6540180674281595D-03   6   3   2   1
 -0.1917864761806811D-03   6   6   2   1
 -0.1825146425438902D-02   7   4   2   1
  0.5557538349110536D-03   7   7   2   1
 -0.2873496032432833D-02   8   1   2   1
 -0.1622243903949780D-02   8   2   2   1
 -0.2210106710101845D-02   8   3   2   1
 -0.5444410017374135D-03   8   6   2   1
  0.8364624481311929D-03   8   8   2   1
  0.1993356857999549D-02   9   5   2   1
  0.1667135264842704D-02   9   9   2   1
 -0.1220884539635858D-01  10   1   2   1
 -0.1628162892838422D-02  10   2   2   1
 -0.2399365004524426D-02  10   3   2   1
 -0.2105830132138628D-03  10   6   2   1
  0.7904045410647544D-03  10   8   2   1
  0.6397073504759812D-03  10  10   2   1
 -0.9928511213704238D-02  11   1   2   1
  0.3397206883528692D-04  11   2   2   1
  0.3071038377558042D-02  11   3   2   1
  0.1172945852747314D-03  11   6   2   1
 -0.3433354584772028D-03  11   8   2   1
 -0.3357870562285233D-03  11  10   2   1
  0.2336186403990340D-03  11  11   2   1
  0.2491037072141670D-02  12   4   2   1
 -0.2609029845233614D-03  12   7   2   1
 -0.6242617741156215D-03  12  12   2   1
  0.1965279868512224D-02  13   5   2   1
  0.1117791279518369D-02  13   9   2   1
 -0.4796119507730675D-03  13  13   2   1
  0.1150479159100773D-02  14   1   2   1
 -0.8456769219716316D-04  14   2   2   1
  0.1962557296067868D-03  14   3   2   1
 -0.3378589537395120D-04  14   6   2   1
 -0.4923149459481025D-04  14   8   2   1
  0.3891122349012558D-04  14  10   2   1
  0.1088388139050006D-03  14  11   2   1
  0.3116806702103110D-04  14  14   2   1
  0.4569186399050945D-04  15  15   2   1
 -0.1016081543783682D-01  16   1   2   1
 -0.2654768997986118D-03  16   2   2   1
 -0.1960322575402948D-02  16   3   2   1
  0.4291614013100982D-04  16   6   2   1
  0.3346468789649486D-03  16   8   2   1
  0.4025792312739273D-04  16  10   2   1
 -0.2497174339348727D-03  16  11   2   1
  0.4122717311860684D-04  16  14   2   1
 -0.7315448798211974D-04  16  16   2   1
 -0.1412637983661260D-02  17   4   2   1
  0.6598987206855399D-03  17   7   2   1
  0.1302738826939945D-03  17  12   2   1
  0.1755880640656638D-02  17  17   2   1
  0.1472927579874900D-01  18   1   2   1
  0.2542984061419064D-02  18   2   2   1
  0.1363872614044956D-02  18   3   2   1
  0.4437403543410992D-03  18   6   2   1
 -0.4823247756726515D-03  18   8   2   1
 -0.8752891932973374D-03  18  10   2   1
 -0.7784717841368919D-03  18  11   2   1
 -0.9136555230146367D-05  18  14   2   1
  0.1377690876570386D-03  18  16   2   1
  0.1110009424814296D-02  18  18   2   1
 -0.2227401915385962D-03  19   5   2   1
 -0.4192789103361464D-03  19   9   2   1
  0.2981029246709059D-03  19  13   2   1
  0.1072551322978026D-02  19  19   2   1
  0.7554119204897023D-02  20   4   2   1
 -0.2230548600269509D-02  20   7   2   1
  0.1565853912819870D-02  20  12   2   1
 -0.3195334030544856D-02  20  17   2   1
  0.8300575391048240D-02  20  20   2   1
  0.9250696781509247D-03  21   1   2   1
 -0.2404098560476558D-02  21   2   2   1
 -0.1013590448826955D-01  21   3   2   1
 -0.2910224307664769D-03  21   6   2   1
  0.2546519155703408D-02  21   8   2   1
  0.1745215887188026D-02  21  10   2   1
 -0.2594588873366998D-02  21  11   2   1
  0.8830728824598370D-04  21  14   2   1
 -0.8001481526627701D-05  21  16   2   1
 -0.2103424014768441D-02  21  18   2   1
  0.1205632522244270D-01  21  21   2   1
 -0.5558196909125105D-02  22   5   2   1
 -0.4512516451043292D-02  22   9   2   1
 -0.1790755145788645D-02  22  13   2   1
  0.2710923987432862D-02  22  19   2   1
  0.1125666737593770D-01  22  22   2   1
  0.2047727077156884D-01  23   1   2   1
  0.3832413190088715D-02  23   2   2   1
  0.3257929104741175D-02  23   3   2   1
  0.6036965251243085D-03  23   6   2   1
 -0.5790062060702290D-03  23   8   2   1
 -0.1513388619145283D-02  23  10   2   1
  0.4718757706644836D-03  23  11   2   1
  0.1360223658941895D-03  23  14   2   1
 -0.1450098854854919D-02  23  16   2   1
  0.1423944525084892D-02  23  18   2   1
 -0.4356812646005456D-02  23  21   2   1
  0.1482009949760135D-02  23  23   2   1
  0.4760322364153891D-02  24   4   2   1
 -0.1411307678966679D-02  24   7   2   1
  0.2292251524410778D-03  24  12   2   1
 -0.1415212228634353D-02  24  17   2   1
  0.2791269142854175D-02  24  20   2   1
 -0.1257385587179118D-02  24  24   2   1
  0.3449735200350482D-02  25   5   2   1
  0.2914378074494917D-02  25   9   2   1
  0.4311875170513217D-03  25  13   2   1
 -0.1323980081225995D-02  25  19   2   1
 -0.3767109535943954D-02  25  22   2   1
 -0.1316535004276934D-02  25  25   2   1
 -0.1660214951472260D-01  26   1   2   1
 -0.1005231406700640D-02  26   2   2   1
 -0.5114445995705191D-02  26   3   2   1
 -0.7892460024846066D-04  26   6   2   1
  0.1223987195727053D-02  26   8   2   1
  0.7554113424749251D-03  26  10   2   1
 -0.1233628380559631D-02  26  11   2   1
  0.7226763681814736D-04  26  14   2   1
 -0.3900787755887505D-03  26  16   2   1
 -0.8123343303339495D-03  26  18   2   1
  0.4228972517079304D-02  26  21   2   1
 -0.1994041363368378D-02  26  23   2   1
  0.5296693631315734D-03  26  26   2   1
 -0.1256879958326216D-03  27  15   2   1
  0.9332268309623659D-03  27  27   2   1
  0.6596093692377297D-02  28   1   2   1
  0.4298349426271233D-03  28   2   2   1
  0.2028567568936778D-02  28   3   2   1
  0.4171994369922224D-04  28   6   2   1
 -0.4789949237029200D-03  28   8   2   1
 -0.3074202990472655D-03  28  10   2   1
  0.3961651518980633D-03  28  11   2   1
 -0.1638352156859053D-03  28  14   2   1
  0.1616012087513089D-03  28  16   2   1
  0.3456176762717035D-03  28  18   2   1
 -0.1552606456093390D-02  28  21   2   1
  0.9291370875498099D-03  28  23   2   1
  0.1499574707364976D-03  28  26   2   1
  0.8669533347916822D-03  28  28   2   1
 -0.1457157407298050D-01  29   1   2   1
 -0.3818201652634122D-02  29   2   2   1
  0.1331060268298660D-02  29   3   2   1
 -0.7448479407333826D-03  29   6   2   1
 -0.4654426272950949D-03  29   8   2   1
  0.1002252235895193D-02  29  10   2   1
  0.2707930248541925D-02  29  11   2   1
 -0.9785391259073111D-04  29  14   2   1
  0.5930947473333876D-03  29  16   2   1
 -0.1626425336413489D-02  29  18   2   1
 -0.3038978134928755D-02  29  21   2   1
 -0.2745687735141089D-02  29  23   2   1
  0.9642289697194602D-03  29  26   2   1
 -0.2602395352942323D-03  29  28   2   1
  0.1303214804952674D-02  29  29   2   1
  0.1475123910476957D-02  30   4   2   1
 -0.4435376369220427D-03  30   7   2   1
  0.1050397980999901D-02  30  12   2   1
  0.1647736706764787D-03  30  17   2   1
  0.3841978690094137D-03  30  20   2   1
  0.2614536419463934D-02  30  24   2   1
 -0.1108079316375161D-02  30  30   2   1
  0.1098152742790797D-02  31   5   2   1
  0.9271522062271882D-03  31   9   2   1
  0.1082806446110563D-02  31  13   2   1
  0.8984236367106280D-04  31  19   2   1
 -0.5228140112403150D-03  31  22   2   1
  0.2585306516374365D-02  31  25   2   1
 -0.9743874156663904D-03  31  31   2   1
  0.2030366405847101D-01  32   1   2   1
  0.3111351644811319D-02  32   2   2   1
 -0.2167907790022742D-02  32   3   2   1
  0.5130422327025871D-03  32   6   2   1
  0.6367771379423550D-03  32   8   2   1
 -0.8637080098462839D-03  32  10   2   1
 -0.1560339860926254D-02  32  11   2   1
  0.3292528617813047D-03  32  14   2   1
 -0.1862674278199623D-02  32  16   2   1
 -0.1097422388071142D-03  32  18   2   1
  0.4793813113423810D-02  32  21   2   1
 -0.1312809129011643D-02  32  23   2   1
 -0.2199798107016593D-02  32  26   2   1
  0.9133977989001785D-03  32  28   2   1
 -0.8725034728589414D-04  32  29   2   1
  0.3675397286848225D-02  32  32   2   1
  0.6398699538177099D+00   2   2   2   2
  0.1768382674365244D-01   3   1   2   2
 -0.6798815771827386D-01   3   2   2   2
  0.4712602318115124D+00   3   3   2   2
  0.5134806345070295D+00   4   4   2   2
  0.3904336712844494D+00   5   5   2   2
 -0.2781209762251263D-03   6   1   2   2
  0.3843274209678962D-01   6   2   2   2
 -0.3991507731761386D-03   6   3   2   2
  0.1691563875983096D+00   6   6   2   2
 -0.6668052814914231D-01   7   4   2   2
  0.1965128167820040D+00   7   7   2   2
 -0.4391683320169628D-02   8   1   2   2
  0.2270226419077522D-01   8   2   2   2
 -0.5160246804612915D-01   8   3   2   2
  0.1812247804578185D-01   8   6   2   2
  0.1761043380652313D+00   8   8   2   2
  0.1438748569096991D+00   9   5   2   2
  0.2747414924053649D+00   9   9   2   2
 -0.1344417674693695D-02  10   1   2   2
 -0.5230339266000928D-01  10   2   2   2
 -0.2009507415035204D-01  10   3   2   2
 -0.5234173425784361D-01  10   6   2   2
  0.3906093051246978D-02  10   8   2   2
  0.2130014931958015D+00  10  10   2   2
  0.6645404995618822D-02  11   1   2   2
 -0.4729874816302072D-01  11   2   2   2
  0.3291585113430362D-02  11   3   2   2
 -0.4241233449952299D-01  11   6   2   2
 -0.2102764053279285D-01  11   8   2   2
  0.3337376936826125D-01  11  10   2   2
  0.3594254345296076D+00  11  11   2   2
 -0.4140518265518704D-02  12   4   2   2
 -0.2882292851730113D-01  12   7   2   2
  0.3258538170205025D+00  12  12   2   2
 -0.7185716132308145D-02  13   5   2   2
  0.2036625390487677D-01  13   9   2   2
  0.3214112734569606D+00  13  13   2   2
 -0.4797728665564405D-03  14   1   2   2
  0.1242949660616978D-01  14   2   2   2
 -0.8109055787371222D-02  14   3   2   2
  0.4512701078234798D-02  14   6   2   2
  0.7840401498129854D-02  14   8   2   2
 -0.7237855727704690D-02  14  10   2   2
  0.1801722910582068D-02  14  11   2   2
  0.3081864254768653D+00  14  14   2   2
  0.3079796753711365D+00  15  15   2   2
  0.1543716703104218D-02  16   1   2   2
 -0.7304812488786390D-01  16   2   2   2
  0.4379745901488048D-01  16   3   2   2
 -0.2385409206268255D-01  16   6   2   2
 -0.3411340963786017D-01  16   8   2   2
  0.6180139226797615D-01  16  10   2   2
 -0.3800478248963957D-02  16  11   2   2
 -0.8412826469714751D-03  16  14   2   2
  0.2993320730161495D+00  16  16   2   2
 -0.7263683589919738D-01  17   4   2   2
  0.3829476271606527D-01  17   7   2   2
  0.6756463902090008D-02  17  12   2   2
  0.2854020062030822D+00  17  17   2   2
  0.1301073230143538D-02  18   1   2   2
  0.1708956454634755D-01  18   2   2   2
  0.4302500152798303D-01  18   3   2   2
  0.1057790746113300D-01  18   6   2   2
 -0.1528702424116964D-01  18   8   2   2
 -0.3705723315515547D-01  18  10   2   2
 -0.4090859538582307D-01  18  11   2   2
  0.1547180980251500D-02  18  14   2   2
 -0.5137469663155814D-02  18  16   2   2
  0.2987082455704062D+00  18  18   2   2
 -0.5201845614205561D-01  19   5   2   2
 -0.5548409494142889D-01  19   9   2   2
  0.4939520369511262D-02  19  13   2   2
  0.2851543353157476D+00  19  19   2   2
  0.8703710406695160D-01  20   4   2   2
 -0.5777625775901581D-01  20   7   2   2
  0.3655785715436526D-01  20  12   2   2
 -0.3553380592463595D-01  20  17   2   2
  0.4084984364231117D+00  20  20   2   2
 -0.2129049041056175D-01  21   1   2   2
  0.1469230709390489D-01  21   2   2   2
 -0.4932308582400093D-01  21   3   2   2
  0.1029395050645818D-01  21   6   2   2
  0.3019822184819284D-01  21   8   2   2
 -0.8612061348166999D-02  21  10   2   2
 -0.1110219710064632D+00  21  11   2   2
  0.3567326079723196D-02  21  14   2   2
 -0.1755901583780452D-01  21  16   2   2
  0.5248611577615782D-01  21  18   2   2
  0.4363286479303721D+00  21  21   2   2
 -0.7151689045723293D-01  22   5   2   2
 -0.9327880564710314D-01  22   9   2   2
 -0.3923685412410434D-01  22  13   2   2
  0.3334810271983886D-01  22  19   2   2
  0.4515776598821059D+00  22  22   2   2
  0.4922056307532956D-02  23   1   2   2
  0.2417569829172624D-02  23   2   2   2
  0.7482238329201578D-01  23   3   2   2
  0.6210073794551784D-02  23   6   2   2
 -0.3388119189308319D-01  23   8   2   2
 -0.3677913737276093D-01  23  10   2   2
 -0.7237674174208969D-01  23  11   2   2
 -0.5792072701021590D-02  23  14   2   2
  0.3247290137543603D-01  23  16   2   2
  0.5467619356271512D-01  23  18   2   2
  0.5948296841958367D-01  23  21   2   2
  0.4393662816217891D+00  23  23   2   2
 -0.5972919306187773D-01  24   4   2   2
  0.1813061646184111D-01  24   7   2   2
  0.7345573551842052D-01  24  12   2   2
  0.5715015491109190D-01  24  17   2   2
  0.6092328600101726D-02  24  20   2   2
  0.5250718271457756D+00  24  24   2   2
 -0.4603261463754699D-01  25   5   2   2
 -0.4225673007297898D-01  25   9   2   2
  0.6637460246356018D-01  25  13   2   2
  0.5684994384922369D-01  25  19   2   2
  0.7510691442019407D-02  25  22   2   2
  0.5311502206877290D+00  25  25   2   2
 -0.2047883201423809D-05  26   1   2   2
 -0.7237015266978632D-01  26   2   2   2
  0.2522762481582661D-01  26   3   2   2
 -0.1670324809288553D-01  26   6   2   2
 -0.7224350804538801D-02  26   8   2   2
  0.3215293118595661D-01  26  10   2   2
  0.2464801086772299D-01  26  11   2   2
 -0.4042730069133840D-01  26  14   2   2
  0.9497291611949484D-01  26  16   2   2
 -0.1028465156478590D-01  26  18   2   2
 -0.2770001599855690D-01  26  21   2   2
  0.1509259505483928D-02  26  23   2   2
  0.4729717538962047D+00  26  26   2   2
 -0.6822366773684055D-01  27  15   2   2
  0.4800069812823025D+00  27  27   2   2
  0.9322137661913214D-04  28   1   2   2
  0.2939690894248323D-01  28   2   2   2
 -0.1161866099384152D-01  28   3   2   2
  0.6825715426054296D-02  28   6   2   2
  0.1748530266958500D-02  28   8   2   2
 -0.1300524644998615D-01  28  10   2   2
 -0.1129082514398984D-01  28  11   2   2
 -0.5661538931686112D-01  28  14   2   2
 -0.4670599636425160D-01  28  16   2   2
  0.3254418227018623D-02  28  18   2   2
  0.6516038093334503D-02  28  21   2   2
 -0.4048840837473106D-02  28  23   2   2
  0.2979287573031508D-02  28  26   2   2
  0.4789387028929308D+00  28  28   2   2
  0.4416722505531401D-03  29   1   2   2
  0.4612602893612013D-02  29   2   2   2
 -0.3212757900183153D-01  29   3   2   2
 -0.2251355223182039D-03  29   6   2   2
  0.9926588394470696D-02  29   8   2   2
  0.7521962075790922D-02  29  10   2   2
 -0.2453149926495048D-01  29  11   2   2
  0.7969709768196435D-03  29  14   2   2
  0.8441014952205117D-02  29  16   2   2
 -0.5241151756017340D-01  29  18   2   2
  0.2030594278217630D-01  29  21   2   2
  0.1622204001563498D-01  29  23   2   2
 -0.2578059390318010D-01  29  26   2   2
  0.9339313038554023D-02  29  28   2   2
  0.5159703227294592D+00  29  29   2   2
 -0.2548973732361307D-01  30   4   2   2
  0.7946086220855832D-02  30   7   2   2
 -0.4055332338323062D-01  30  12   2   2
  0.4748560572824677D-01  30  17   2   2
 -0.1413732776688369D-01  30  20   2   2
 -0.3535192022979618D-01  30  24   2   2
  0.5181766517025285D+00  30  30   2   2
 -0.1649521892248538D-01  31   5   2   2
 -0.1169722614888086D-01  31   9   2   2
 -0.3963579507757507D-01  31  13   2   2
  0.4689358329107321D-01  31  19   2   2
  0.2607249344246917D-01  31  22   2   2
 -0.3440277107273086D-01  31  25   2   2
  0.5173906290919010D+00  31  31   2   2
 -0.1324510569015533D-01  32   1   2   2
 -0.1754665381723717D-01  32   2   2   2
  0.6281393513599524D-02  32   3   2   2
  0.3136519450399345D-02  32   6   2   2
 -0.1844695549466539D-02  32   8   2   2
 -0.5248975656404753D-03  32  10   2   2
 -0.2112715440986174D-01  32  11   2   2
 -0.3357529283828483D-02  32  14   2   2
  0.6889568620833342D-02  32  16   2   2
  0.3608028774788438D-01  32  18   2   2
  0.9191148040592007D-01  32  21   2   2
  0.8505184238214251D-01  32  23   2   2
  0.5059386630663992D-02  32  26   2   2
 -0.3953902208336538D-02  32  28   2   2
 -0.4342887446736644D-01  32  29   2   2
  0.5793290055199514D+00  32  32   2   2
  0.2509064760499813D-01   3   1   3   1
 -0.7350597815634690D-02   3   2   3   1
 -0.6635207150906700D-02   3   3   3   1
  0.4612666388698375D-02   4   4   3   1
  0.2163298702439687D-02   5   5   3   1
  0.2619797348981223D-02   6   1   3   1
  0.2549515800110746D-02   6   2   3   1
 -0.1913084250860399D-03   6   3   3   1
  0.1004114186153717D-02   6   6   3   1
 -0.1307584404937119D-02   7   4   3   1
  0.3839752144691308D-03   7   7   3   1
 -0.5541414696316964D-02   8   1   3   1
  0.2033698965800153D-02   8   2   3   1
  0.7486826227275364D-03   8   3   3   1
  0.9506935958517417D-03   8   6   3   1
 -0.8095593372569516D-03   8   8   3   1
  0.1740942145407469D-02   9   5   3   1
  0.1356748036007486D-02   9   9   3   1
 -0.6882778045617098D-02  10   1   3   1
 -0.3487368448804441D-02  10   2   3   1
  0.1387174785524756D-02  10   3   3   1
 -0.7751916050244419D-03  10   6   3   1
 -0.1009802302234730D-02  10   8   3   1
  0.1132929031242567D-02  10  10   3   1
  0.1845342220083697D-02  11   1   3   1
 -0.6418546113931700D-02  11   2   3   1
 -0.3534539687089813D-02  11   3   3   1
 -0.1488350266468690D-02  11   6   3   1
 -0.2238481228551013D-03  11   8   3   1
  0.2632257938592251D-02  11  10   3   1
  0.3742555567713089D-02  11  11   3   1
 -0.1919338556876351D-02  12   4   3   1
 -0.3950321805450680D-03  12   7   3   1
  0.1804099208923182D-02  12  12   3   1
 -0.1887090285367820D-02  13   5   3   1
 -0.5700657221428557D-03  13   9   3   1
  0.1545091106563855D-02  13  13   3   1
  0.1615335737684725D-03  14   1   3   1
  0.8736218561687156D-03  14   2   3   1
 -0.4173322586168031D-03  14   3   3   1
  0.1981902295976515D-03  14   6   3   1
  0.1354170610872184D-03  14   8   3   1
 -0.3015096172351433D-03  14  10   3   1
 -0.5773290555381978D-03  14  11   3   1
  0.2780576173003741D-04  14  14   3   1
 -0.3252528000486656D-04  15  15   3   1
 -0.3617079636569135D-02  16   1   3   1
 -0.5315298896211443D-02  16   2   3   1
  0.2627554532957712D-02  16   3   3   1
 -0.1175709205114185D-02  16   6   3   1
 -0.5760800736739600D-03  16   8   3   1
  0.1940172886474255D-02  16  10   3   1
  0.2918118801946279D-02  16  11   3   1
 -0.3165661744800825D-03  16  14   3   1
  0.2119213017225713D-02  16  16   3   1
 -0.4189963760868336D-02  17   4   3   1
  0.7865866443555475D-03  17   7   3   1
 -0.1554378579309700D-02  17  12   3   1
 -0.5483829871311030D-03  17  17   3   1
  0.8274484340666884D-02  18   1   3   1
  0.3219348961023404D-02  18   2   3   1
  0.1485849627214209D-02  18   3   3   1
  0.5825223804342202D-03  18   6   3   1
  0.2615643713523101D-03  18   8   3   1
 -0.1191512270812882D-02  18  10   3   1
 -0.8679950398969574D-03  18  11   3   1
  0.3075704560513064D-03  18  14   3   1
 -0.2803535515253895D-02  18  16   3   1
  0.1383849249774003D-02  18  18   3   1
 -0.2942289706686546D-02  19   5   3   1
 -0.1925889540194481D-02  19   9   3   1
 -0.1565914215279972D-02  19  13   3   1
 -0.5288764140055388D-03  19  19   3   1
  0.3866192909151558D-02  20   4   3   1
 -0.1263032019131757D-02  20   7   3   1
  0.4247401607926099D-03  20  12   3   1
 -0.1746320981999059D-02  20  17   3   1
  0.5657566902694916D-02  20  20   3   1
 -0.2234138900175639D-01  21   1   3   1
  0.7563680915436960D-02  21   2   3   1
  0.3876171199702880D-02  21   3   3   1
  0.1517532791882752D-02  21   6   3   1
 -0.8910635240682483D-03  21   8   3   1
 -0.3652300471412503D-02  21  10   3   1
 -0.2982119983935843D-02  21  11   3   1
  0.3636310709668664D-03  21  14   3   1
 -0.2371083540397287D-02  21  16   3   1
  0.4418882495726102D-02  21  18   3   1
  0.6690459935045244D-03  21  21   3   1
 -0.3155750575015065D-02  22   5   3   1
 -0.2656785882173012D-02  22   9   3   1
 -0.5957068092910733D-03  22  13   3   1
  0.1507418032310573D-02  22  19   3   1
  0.7321398363778087D-02  22  22   3   1
  0.1489782378069295D-01  23   1   3   1
  0.3537055991385148D-02  23   2   3   1
  0.1676619343549808D-02  23   3   3   1
  0.7006680822946852D-03  23   6   3   1
 -0.4196338719554465D-03  23   8   3   1
 -0.1078870645925078D-02  23  10   3   1
 -0.3099143532002461D-02  23  11   3   1
  0.2435199762077639D-04  23  14   3   1
 -0.1321522418416946D-03  23  16   3   1
  0.2093743193510477D-02  23  18   3   1
  0.5293140608670767D-02  23  21   3   1
  0.4645988422007915D-02  23  23   3   1
 -0.8047205297880477D-02  24   4   3   1
  0.2387245943505987D-02  24   7   3   1
 -0.6267644174892673D-04  24  12   3   1
  0.2296600888374785D-02  24  17   3   1
 -0.3758394804750990D-02  24  20   3   1
  0.3673031129946969D-02  24  24   3   1
 -0.5723207696031868D-02  25   5   3   1
 -0.4882610092191146D-02  25   9   3   1
 -0.4222028242301277D-03  25  13   3   1
  0.2168772472336893D-02  25  19   3   1
  0.5000100820028471D-02  25  22   3   1
  0.3854122716009813D-02  25  25   3   1
 -0.7961232014303864D-02  26   1   3   1
 -0.7175327072843705D-02  26   2   3   1
  0.6810563148881401D-02  26   3   3   1
 -0.1479384865757924D-02  26   6   3   1
 -0.2037389840428392D-02  26   8   3   1
  0.1745645559568680D-02  26  10   3   1
  0.5493153864912545D-02  26  11   3   1
 -0.5807634898282670D-03  26  14   3   1
  0.3514223121138019D-02  26  16   3   1
 -0.2058656879165595D-02  26  18   3   1
 -0.1012244950550047D-01  26  21   3   1
 -0.1480385593464255D-02  26  23   3   1
  0.5365563229979964D-02  26  26   3   1
 -0.6211772082570204D-05  27  15   3   1
  0.2581678710443007D-03  27  27   3   1
  0.3129959732710720D-02  28   1   3   1
  0.2723574027076082D-02  28   2   3   1
 -0.2757818061849973D-02  28   3   3   1
  0.5615603413765156D-03  28   6   3   1
  0.7983586790531300D-03  28   8   3   1
 -0.6667263608230087D-03  28  10   3   1
 -0.2031729545960346D-02  28  11   3   1
  0.2229443925369932D-03  28  14   3   1
 -0.1402347677781762D-02  28  16   3   1
  0.7602809205433808D-03  28  18   3   1
  0.3817783126272188D-02  28  21   3   1
  0.3550543565754048D-03  28  23   3   1
 -0.2039108885373766D-02  28  26   3   1