1 : cc-ccsdt-ch
2 : 00
3 : 1
4 : 1
----- GAMESS execution script 'rungms' -----
This job is running on host coupled.cem.msu.edu
under operating system Linux at Fri Apr 7 15:28:09 EDT 2023
Available scratch disk space (Kbyte units) at beginning of the job is
Filesystem      1K-blocks       Used Available Use% Mounted on
/dev/sdb2      2620586816 1626409068 861052872  66% /scratch
GAMESS temporary binary files will be written to /scratch/gururang
GAMESS supplementary output files will be written to /home2/gururang/gamess_new/gamess/tests/cc
Copying input file /home2/gururang/gamess_new/gamess/tests/cc/cc-ccsdt-ch.inp to your run's scratch directory...

 Distributed Data Interface kickoff program.
 Initiating 1 compute processes on 1 nodes to run the following command:
 /home2/gururang/gamess_new/gamess/gamess.00.x cc-ccsdt-ch 

          *******************************************************
          *                                                     *
          *          GAMESS VERSION = 30 SEP 2022 (R2)          *
          *                                                     *
          *              doi.org/10.1063/5.0005188              *
          *                                                     *
          **************** 64 BIT LINUX VERSION *****************

  GAMESS HAS BEEN MADE POSSIBLE WITH IMPORTANT CONTRIBUTIONS FROM
  THE FOLLOWING INDIVIDUALS (IN ALPHABETICAL ORDER):

     IVANA ADAMOVIC, CHRISTINE AIKENS, TOMOKO AKAMA,
     MELISA ALKAN, YURI ALEXEEV, YURIKO AOKI, POOJA ARORA,
     TOSHIO ASADA, ANDREY ASADCHEV, KIM K. BALDRIDGE,
     PRADIPTA BANDYOPADHYAY, TAYLOR A. BARNES, MARIA BARYSZ,
     ROB BELL, JONATHAN BENTZ, COLLEEN BERTONI,
     JERRY A. BOATZ, BRETT BODE, KURT BRORSEN, KURT R. BRORSEN,
     LAIMUTIS BYTAUTAS, CALEB CARLIN, LAURA CARRINGTON,
     GALINA CHABAN, BENOIT CHAMPAGNE, WEI CHEN, MAHITO CHIBA,
     DAN CHIPMAN, CHEOL HO CHOI, TANNER CULPITT,
     DIPAYAN DATTA, PAUL DAY, ALBERT DEFUSCO,
     NUWAN DESILVA, J. EMILIANO DEUSTUA,
     TIM DUDLEY, MICHEL DUPUIS, STEVEN T. ELBERT,
     DMITRI FEDOROV, KATHERINE FERRERAS, MICHAEL FILATOV,
     ALEX FINDLATER,GRAHAM FLETCHER, MARK FREITAG,
     CHRISTIAN FRIEDL, DAVID GARMER, 
     IGOR S. GERASIMOV, KURT GLAESEMANN,
     MARK S. GORDON, JEFFREY GOUR, FENG LONG GU,
     EMILIE B. GUIDEZ, ANASTASIA GUNINA, SHARON HAMMES-SCHIFFER,
     MASATAKE HARUTA, KIMIHIKO HIRAO, YASUHIRO IKABATA,
     TZVETELIN IORDANOV, STEPHAN IRLE, KAZUYA ISHIMURA,
     JOE IVANIC, FRANK JENSEN, JAN H. JENSEN, VISVALDAS KAIRYS,
     MUNEAKI KAMIYA, MICHIO KATOUDA, NAOAKI KAWAKAMI, DAN KEMP,
     BERNARD KIRTMAN, KAZUO KITAURA, MARIUSZ KLOBUKOWSKI,
     MASATO KOBAYASHI, KONSTANTIN KOMAROV, PRAKASHAN KORAMBATH,
     JACEK KORCHOWIEC, SHIRO KOSEKI, KAROL KOWALSKI,
     JIMMY KROMANN, STANISLAW KUCHARSKI, HENRY KURTZ,
     SAROM SOK LEANG, SEUNGHOON LEE, HUI LI, SHUHUA LI, WEI LI,
     JESSE LUTZ, ALEKSANDR O. LYKHIN, MARCIN MAKOWSKI,
     JOANI MATO, NIKITA MATSUNAGA, BENEDETTA MENNUCCI,
     GRANT MERRILL, NORIYUKI MINEZAWA, VLADIMIR MIRONOV,
     EISAKU MIYOSHI, JOHN A. MONTGOMERY JR., HIROTOSHI MORI,
     JONATHAN MULLIN, MONIKA MUSIAL, SHIGERU NAGASE,
     TAKESHI NAGATA, HIROMI NAKAI, TAKAHITO NAKAJIMA,
     YUYA NAKAJIMA, HARUYUKI NAKANO, HIROYA NAKATA, SEAN NEDD,
     HEATHER NETZLOFF, KIET A. NGUYEN, YOSHIO NISHIMOTO,
     BOSILJKA NJEGIC, RYAN OLSON, MIKE PAK, ROBERTO PEVERATI,
     BUU PHAM, PIOTR PIECUCH, ANNA POMOGAEVA, DAVID POOLE,
     SPENCER PRUITT, OLIVIER QUINET, LUKE ROSKOP,
     KLAUS RUEDENBERG, ANDREW SAND, TOSAPORN SATTASATHUCHANA,
     NOZOMI SAWADA, MICHAEL W. SCHMIDT, PATRICK E. SCHNEIDER,
     JUNJI SEINO, PRACHI SHARMA, JUN SHEN, JIM SHOEMAKER,
     YINAN SHU, DEJUN SI, JONATHAN SKONE, LYUDMILA SLIPCHENKO,
     TONY SMITH, JIE SONG, MARK SPACKMAN, CASPER STEINMANN,
     WALT STEVENS, PEIFENG SU, SHUJUN SU, CHET SWALINA,
     CHINAMI TAKASHIMA, TETSUYA TAKETSUGU, ZHEN TAO,
     NANDUN THELLAMUREGE, SEIKEN TOKURA, JACOPO TOMASI,
     TSUGUKI TOUMA, TAKAO TSUNEDA, HIROAKI UMEDA,
     JORGE LUIS GALVEZ VALLEJO, YALI WANG, SIMON WEBB,
     AARON WEST, THERESA L. WINDUS, MARTA WLOCH,
     PENG XU, KIYOSHI YAGI, SUSUMU YANAGISAWA, YANG YANG,
     SOOHAENG YOO, TAKESHI YOSHIKAWA, FEDERICO ZAHARIEV,
     TOBY ZENG

  WHO ARE SUPPORTED BY THEIR INSTITUTION/UNIVERSITY/COMPANY/GROUP
  (IN ALPHABETICAL ORDER):

     EP ANALYTICS,
     FACULTES UNIVERSITAIRES NOTRE-DAME DE LA PAIX,
     INSTITUTE FOR MOLECULAR SCIENCE, IOWA STATE UNIVERSITY,
     JACKSON STATE UNIVERSITY, JOHANNES KEPLER UNIVERSITY LINZ,
     KYUNGPOOK NATIONAL UNIVERSITY
     KYUSHU UNIVERSITY, MICHIGAN STATE UNIVERSITY,
     MIE UNIVERSITY, THE MOLECULAR SCIENCES SOFTWARE INSTITUTE,
     MOSCOW STATE UNIVERSITY,
     N. COPERNICUS UNIVERSITY, NAGOYA UNIVERSITY,
     NANJING UNIVERSITY, NAT. INST. OF ADVANCED INDUSTRIAL
     SCIENCE AND TECHNOLOGY, NATIONAL INST. OF STANDARDS AND
     TECHNOLOGY, NESMEYANOV INSTITUTE OF ORGANOELEMENT COMPOUNDS
     OF RUSSIAN ACADEMY OF SCIENCES, OSAKA PREFECTURE UNIVERSITY,
     PENNSYLVANIA STATE UNIVERSITY, TOKYO INSTITUTE OF TECHNOLOGY,
     UNIVERSITY OF AARHUS, UNIVERSITY OF ALBERTA,
     UNIVERSITY OF CALIFORNIA AT SANTA BARBARA,
     UNIVERSITY OF COPENHAGEN, UNIVERSITY OF IOWA,
     UNIVERSITY OF MEMPHIS, UNIVERSITY OF MINNESOTA,
     UNIVERSITY OF NEBRASKA, UNIVERSITY OF NEW ENGLAND,
     UNIVERSITY OF NOTRE DAME, UNIVERSITY OF PISA,
     UNIVERSITY OF SILESIA, UNIVERSITY OF TOKYO,
     UNIVERSITY OF ZURICH, WASEDA UNIVERSITY,
     YALE UNIVERSITY

  GAMESS SOFTWARE MANAGEMENT TEAM FOR THIS RELEASE:
     MARK S. GORDON (TEAM LEAD),
     BRETT BODE (SENIOR ADVISOR),
     GIUSEPPE BARCA,
     COLLEEN BERTONI,
     KRISTOPHER KEIPERT (ADVISOR),
     SAROM S. LEANG (DEVELOPMENT LEAD),
     BUU PHAM,
     JACKSON HAYES (WEBSITE ADMINISTRATOR),
     PENG XU

 EXECUTION OF GAMESS BEGUN 15:28:09 07-APR-2023    

            ECHO OF THE FIRST FEW INPUT CARDS -
 INPUT CARD>!   REFERENCE ENERGY:      -38.2713247488                                       
 INPUT CARD>!       CCSDt ENERGY:      -38.3877485336   CORR. E=  -0.1164237849             
 INPUT CARD>!                                                                               
 INPUT CARD> $contrl runtyp=fcidump scftyp=rohf mult=2 cctyp=ccsd3a                         
 INPUT CARD>         ispher=1 $end                                                          
 INPUT CARD> $system mwords=50 $end                                                         
 INPUT CARD> $basis gbasis=accd $end                                                        
 INPUT CARD> $ccinp ncore=1 nacto=2 nactu=28 $end                                           
 INPUT CARD> $data                                                                          
 INPUT CARD>CH, aug-cc-pVDZ at R = Re, full CCSDT                                           
 INPUT CARD>Cnv 2                                                                           
 INPUT CARD>                                                                                
 INPUT CARD> C   6.0      0.0000000     0.0000000     0.0000000                             
 INPUT CARD> H   1.0      0.0000000     0.0000000     1.1197868                             
 INPUT CARD> $end                                                                           
     50000000 WORDS OF MEMORY AVAILABLE

     BASIS OPTIONS
     -------------
     GBASIS=ACCD         IGAUSS=       0      POLAR=NONE    
     NDFUNC=       0     NFFUNC=       0     DIFFSP=       F
     NPFUNC=       0      DIFFS=       F     BASNAM=        


     RUN TITLE
     ---------
 CH, aug-cc-pVDZ at R = Re, full CCSDT                                           

 THE POINT GROUP OF THE MOLECULE IS CNV     
 THE ORDER OF THE PRINCIPAL AXIS IS     2

 ATOM      ATOMIC                      COORDINATES (BOHR)
           CHARGE         X                   Y                   Z
 C           6.0     0.0000000000        0.0000000000        0.0000000000
 H           1.0     0.0000000000        0.0000000000        2.1160902167

          INTERNUCLEAR DISTANCES (ANGS.)
          ------------------------------

                1 C          2 H     

   1 C       0.0000000    1.1197868 *
   2 H       1.1197868 *  0.0000000  

  * ... LESS THAN  3.000


     ATOMIC BASIS SET
     ----------------
 THE CONTRACTED PRIMITIVE FUNCTIONS HAVE BEEN UNNORMALIZED
 THE CONTRACTED BASIS FUNCTIONS ARE NOW NORMALIZED TO UNITY

  SHELL TYPE  PRIMITIVE        EXPONENT          CONTRACTION COEFFICIENT(S)

 C         

      1   S       1          6665.0000000    0.000691583963
      1   S       2          1000.0000000    0.005325796153
      1   S       3           228.0000000    0.027060721042
      1   S       4            64.7100000    0.101656846141
      1   S       5            21.0600000    0.274574823617
      1   S       6             7.4950000    0.448294318924
      1   S       7             2.7970000    0.284902610715
      1   S       8             0.5215000    0.015194859206

      2   S       9          6665.0000000   -0.000293269653
      2   S      10          1000.0000000   -0.002318035474
      2   S      11           228.0000000   -0.011499786039
      2   S      12            64.7100000   -0.046826727010
      2   S      13            21.0600000   -0.128466168750
      2   S      14             7.4950000   -0.301266272463
      2   S      15             2.7970000   -0.255630702330
      2   S      16             0.5215000    1.093793361012

      3   S      17             0.1596000    1.000000000000

      4   P      18             9.4390000    0.056979251590
      4   P      19             2.0020000    0.313207211501
      4   P      20             0.5456000    0.760376741738

      5   P      21             0.1517000    1.000000000000

      6   D      22             0.5500000    1.000000000000

      7   S      23             0.0469000    1.000000000000

      8   P      24             0.0404100    1.000000000000

      9   D      25             0.1510000    1.000000000000

 H         

     10   S      26            13.0100000    0.033498726390
     10   S      27             1.9620000    0.234800801174
     10   S      28             0.4446000    0.813682957883

     11   S      29             0.1220000    1.000000000000

     12   P      30             0.7270000    1.000000000000

     13   S      31             0.0297400    1.000000000000

     14   P      32             0.1410000    1.000000000000

 TOTAL NUMBER OF BASIS SET SHELLS             =   14
 NUMBER OF CARTESIAN GAUSSIAN BASIS FUNCTIONS =   34
 NOTE: THIS RUN WILL RESTRICT THE MO VARIATION SPACE TO SPHERICAL HARMONICS.
 THE NUMBER OF ORBITALS KEPT IN THE VARIATIONAL SPACE WILL BE PRINTED LATER.
 NUMBER OF ELECTRONS                          =    7
 CHARGE OF MOLECULE                           =    0
 SPIN MULTIPLICITY                            =    2
 NUMBER OF OCCUPIED ORBITALS (ALPHA)          =    4
 NUMBER OF OCCUPIED ORBITALS (BETA )          =    3
 TOTAL NUMBER OF ATOMS                        =    2
 THE NUCLEAR REPULSION ENERGY IS        2.8354178630

 THIS MOLECULE IS RECOGNIZED AS BEING LINEAR,
 ORBITAL LZ DEGENERACY TOLERANCE ETOLLZ= 1.00E-06

     $CONTRL OPTIONS
     ---------------
 SCFTYP=ROHF         RUNTYP=FCIDUMP      EXETYP=RUN     
 MPLEVL=       0     CITYP =NONE         CCTYP =NONE         VBTYP =NONE    
 DFTTYP=NONE         TDDFT =NONE    
 MULT  =       2     ICHARG=       0     NZVAR =       0     COORD =UNIQUE  
 PP    =NONE         RELWFN=NONE         LOCAL =NONE         NUMGRD=       F
 ISPHER=       1     NOSYM =       0     MAXIT =      30     UNITS =ANGS    
 PLTORB=       F     MOLPLT=       F     AIMPAC=       F     FRIEND=        
 NPRINT=       7     IREST =       0     GEOM  =INPUT   
 NORMF =       0     NORMP =       0     ITOL  =      20     ICUT  =       9
 INTTYP=BEST         GRDTYP=BEST         QMTTOL= 1.0E-06

     $SYSTEM OPTIONS
     ---------------
  REPLICATED MEMORY=    50000000 WORDS (ON EVERY NODE).
 DISTRIBUTED MEMDDI=           0 MILLION WORDS IN AGGREGATE,
 MEMDDI DISTRIBUTED OVER   1 PROCESSORS IS           0 WORDS/PROCESSOR.
 TOTAL MEMORY REQUESTED ON EACH PROCESSOR=    50000000 WORDS.
 TIMLIM=      525600.00 MINUTES, OR     365.0 DAYS.
 PARALL= F  BALTYP=  DLB     KDIAG=    0  COREFL= F
 MXSEQ2=     300 MXSEQ3=     150  mem10=         0  mem22=         0

          ----------------
          PROPERTIES INPUT
          ----------------

     MOMENTS            FIELD           POTENTIAL          DENSITY
 IEMOM =       1   IEFLD =       0   IEPOT =       0   IEDEN =       0
 WHERE =COMASS     WHERE =NUCLEI     WHERE =NUCLEI     WHERE =NUCLEI  
 OUTPUT=BOTH       OUTPUT=BOTH       OUTPUT=BOTH       OUTPUT=BOTH    
 IEMINT=       0   IEFINT=       0                     IEDINT=       0
                                                       MORB  =       0
          EXTRAPOLATION IN EFFECT
          SOSCF IN EFFECT
 ORBITAL PRINTING OPTION: NPREO=     1    34     2     1

     -------------------------------
     INTEGRAL TRANSFORMATION OPTIONS
     -------------------------------
     NWORD  =            0
     CUTTRF = 1.0E-09     MPTRAN =       0
     DIRTRF =       F     AOINTS =DUP     

          ----------------------
          INTEGRAL INPUT OPTIONS
          ----------------------
 NOPK  =       1 NORDER=       0 SCHWRZ=       F

     ------------------------------------------
     THE POINT GROUP IS CNV, NAXIS= 2, ORDER= 4
     ------------------------------------------

 -- VARIATIONAL SPACE WILL BE RESTRICTED TO PURE SPHERICAL HARMONICS ONLY --
 AFTER EXCLUDING CONTAMINANT COMBINATIONS FROM THE CARTESIAN GAUSSIAN BASIS
 SET, THE NUMBER OF SPHERICAL HARMONICS KEPT IN THE VARIATION SPACE IS   32

     DIMENSIONS OF THE SYMMETRY SUBSPACES ARE
 A1  =   16     A2  =    2     B1  =    7     B2  =    7

 ..... DONE SETTING UP THE RUN .....
 STEP CPU TIME =     0.02 TOTAL CPU TIME =          0.0 (      0.0 MIN)
 TOTAL WALL CLOCK TIME=          0.0 SECONDS, CPU UTILIZATION IS    90.20%

          ********************
          1 ELECTRON INTEGRALS
          ********************
 ...... END OF ONE-ELECTRON INTEGRALS ......
 STEP CPU TIME =     0.00 TOTAL CPU TIME =          0.0 (      0.0 MIN)
 TOTAL WALL CLOCK TIME=          0.0 SECONDS, CPU UTILIZATION IS    90.76%

          -------------
          GUESS OPTIONS
          -------------
          GUESS =HUCKEL            NORB  =       0          NORDER=       0
          MIX   =       F          PRTMO =       F          PUNMO =       F
          TOLZ  = 1.0E-08          TOLE  = 1.0E-05
          SYMDEN=       F          PURIFY=       F

 INITIAL GUESS ORBITALS GENERATED BY HUCKEL   ROUTINE.
 HUCKEL GUESS REQUIRES     10218 WORDS.

 STATISTICS FOR GENERATION OF SYMMETRY ORBITAL -Q- MATRIX
 NUMBER OF CARTESIAN ATOMIC ORBITALS=         34
 NUMBER OF SPHERICAL CONTAMINANTS DROPPED=     2
 NUMBER OF LINEARLY DEPENDENT MOS DROPPED=     0
 TOTAL NUMBER OF MOS IN VARIATION SPACE=      32

 SYMMETRIES FOR INITIAL GUESS ORBITALS FOLLOW.  ALPHA SET(S).
     4 ORBITALS ARE OCCUPIED (    1 CORE ORBITALS).
     2=A1       3=A1       4=B2       5=B1       6=A1       7=A1       8=A1  
     9=A1      10=A1      11=A1      12=A1      13=A1      14=A1  

 SYMMETRIES FOR INITIAL GUESS ORBITALS FOLLOW.   BETA SET(S).
     3 ORBITALS ARE OCCUPIED (    1 CORE ORBITALS).
     2=A1       3=A1       4=B2       5=B1       6=A1       7=A1       8=A1  
     9=A1      10=A1      11=A1      12=A1      13=A1  
 ...... END OF INITIAL ORBITAL SELECTION ......
 STEP CPU TIME =     0.01 TOTAL CPU TIME =          0.0 (      0.0 MIN)
 TOTAL WALL CLOCK TIME=          0.0 SECONDS, CPU UTILIZATION IS    88.89%

                    ----------------------
                    AO INTEGRAL TECHNOLOGY
                    ----------------------
     S,P,L SHELL ROTATED AXIS INTEGRALS, REPROGRAMMED BY
        KAZUYA ISHIMURA (IMS) AND JOSE SIERRA (SYNSTAR).
     S,P,D,L SHELL ROTATED AXIS INTEGRALS PROGRAMMED BY
        KAZUYA ISHIMURA (INSTITUTE FOR MOLECULAR SCIENCE).
     S,P,D,F,G SHELL TO TOTAL QUARTET ANGULAR MOMENTUM SUM 5,
        ERIC PROGRAM BY GRAHAM FLETCHER (ELORET AND NASA ADVANCED
        SUPERCOMPUTING DIVISION, AMES RESEARCH CENTER).
     S,P,D,F,G,L SHELL GENERAL RYS QUADRATURE PROGRAMMED BY
        MICHEL DUPUIS (PACIFIC NORTHWEST NATIONAL LABORATORY).

          --------------------
          2 ELECTRON INTEGRALS
          --------------------

 THE -PK- OPTION IS OFF, THE INTEGRALS ARE NOT IN SUPERMATRIX FORM.
 STORING   15000 INTEGRALS/RECORD ON DISK, USING 12 BYTES/INTEGRAL.
 TWO ELECTRON INTEGRAL EVALUATION REQUIRES   90501 WORDS OF MEMORY.
 II,JST,KST,LST =  1  1  1  1 NREC =         1 INTLOC =    1
 II,JST,KST,LST =  2  1  1  1 NREC =         1 INTLOC =    2
 II,JST,KST,LST =  3  1  1  1 NREC =         1 INTLOC =    7
 II,JST,KST,LST =  4  1  1  1 NREC =         1 INTLOC =   22
 II,JST,KST,LST =  5  1  1  1 NREC =         1 INTLOC =   67
 II,JST,KST,LST =  6  1  1  1 NREC =         1 INTLOC =  214
 II,JST,KST,LST =  7  1  1  1 NREC =         1 INTLOC = 1189
 II,JST,KST,LST =  8  1  1  1 NREC =         1 INTLOC = 1589
 II,JST,KST,LST =  9  1  1  1 NREC =         1 INTLOC = 2864
 II,JST,KST,LST = 10  1  1  1 NREC =         1 INTLOC = 7967
 II,JST,KST,LST = 11  1  1  1 NREC =         1 INTLOC =10693
 II,JST,KST,LST = 12  1  1  1 NREC =         1 INTLOC =13822
 II,JST,KST,LST = 13  1  1  1 NREC =         2 INTLOC = 8764
 II,JST,KST,LST = 14  1  1  1 NREC =         2 INTLOC =13454
 TOTAL NUMBER OF NONZERO TWO-ELECTRON INTEGRALS =               43012
          3 INTEGRAL RECORDS WERE STORED ON DISK FILE  8.
  ...... END OF TWO-ELECTRON INTEGRALS .....
 STEP CPU TIME =     0.04 TOTAL CPU TIME =          0.1 (      0.0 MIN)
 TOTAL WALL CLOCK TIME=          0.1 SECONDS, CPU UTILIZATION IS    93.37%

          ---------------------------
                 ROHF SCF CALCULATION
          ---------------------------

     NUCLEAR ENERGY =         2.8354178630
     MAXIT = 30     NPUNCH=  2     MULT=  2
     EXTRAP=T  DAMP=F  SHIFT=F  RSTRCT=F  DIIS=F  SOSCF=T
     DENSITY MATRIX CONV=  1.00E-05
     ROHF CANONICALIZATION PARAMETERS
             C-C     O-O     V-V
     ALPHA -0.5000  0.5000  1.5000
     BETA   1.5000  0.5000 -0.5000
     SOSCF WILL OPTIMIZE     115 ORBITAL ROTATION ANGLES. SOGTOL= 2.500E-01
     MEMORY REQUIRED FOR UHF/ROHF ITERS=     41573 WORDS.

 ITER EX      TOTAL ENERGY        E CHANGE  DENSITY CHANGE    ORB. GRAD 
   1  0      -38.1634268309   -38.1634268309   0.461954611   0.000000000
          ---------------START SECOND ORDER SCF---------------
   2  1      -38.2649455621    -0.1015187312   0.131980359   0.030719436
   3  2      -38.2689318585    -0.0039862964   0.061799014   0.025112060
   4  3      -38.2712851765    -0.0023533179   0.005763714   0.002442915
   5  4      -38.2713212454    -0.0000360690   0.002261204   0.000796486
   6  5      -38.2713246502    -0.0000034048   0.000480687   0.000126092
   7  6      -38.2713247475    -0.0000000973   0.000050056   0.000016514
   8  7      -38.2713247487    -0.0000000013   0.000005648   0.000002187
   9  8      -38.2713247488    -0.0000000000   0.000000983   0.000000105

          -----------------
          DENSITY CONVERGED
          -----------------
     TIME TO FORM FOCK OPERATORS=       0.0 SECONDS (       0.0 SEC/ITER)
     TIME TO SOLVE SCF EQUATIONS=       0.0 SECONDS (       0.0 SEC/ITER)

 FINAL ROHF ENERGY IS      -38.2713247488 AFTER   9 ITERATIONS

          --------------------
          SPIN SZ   =    0.500
          S-SQUARED =    0.750
          --------------------

 LZ VALUE ANALYSIS FOR THE MOS
 ----------------------------------------
 MO     1 (    1) HAS LZ(WEIGHT)= 0.00(100.0%) 
 MO     2 (    2) HAS LZ(WEIGHT)= 0.00(100.0%) 
 MO     3 (    3) HAS LZ(WEIGHT)= 0.00(100.0%) 
 MO     4 (    4) HAS LZ(WEIGHT)= 0.00(100.0%) 
 MO     5 (    5) HAS LZ(WEIGHT)= 0.00(100.0%) 
 MO     6 (    6) HAS LZ(WEIGHT)= 0.00(100.0%) 
 MO     7 (    7) HAS LZ(WEIGHT)= 0.00(100.0%) 
 MO     8 (    8) HAS LZ(WEIGHT)= 0.00(100.0%) 
 MO     9 (    9) HAS LZ(WEIGHT)= 0.00(100.0%) 
 MO    10 (   10) HAS LZ(WEIGHT)= 0.00(100.0%) 
 MO    11 (   11) HAS LZ(WEIGHT)= 0.00(100.0%) 
 MO    12 (   12) HAS LZ(WEIGHT)= 0.00(100.0%) 
 MO    13 (   13) HAS LZ(WEIGHT)= 0.00(100.0%) 
 MO    14 (   14) HAS LZ(WEIGHT)= 0.00(100.0%) 
 MO    15 (   15) HAS LZ(WEIGHT)= 0.00(100.0%) 
 MO    16 (   16) HAS LZ(WEIGHT)= 0.00(100.0%) 
 MO    17 (   17) HAS LZ(WEIGHT)= 0.00(100.0%) 
 MO    18 (   18) HAS LZ(WEIGHT)= 0.00(100.0%) 
 MO    19 (   19) HAS LZ(WEIGHT)= 0.00(100.0%) 
 MO    20 (   20) HAS LZ(WEIGHT)= 0.00(100.0%) 
 MO    21 (   21) HAS LZ(WEIGHT)= 0.00(100.0%) 
 MO    22 (   22) HAS LZ(WEIGHT)= 0.00(100.0%) 
 MO    23 (   23) HAS LZ(WEIGHT)= 0.00(100.0%) 
 MO    24 (   24) HAS LZ(WEIGHT)= 0.00(100.0%) 
 MO    25 (   25) HAS LZ(WEIGHT)= 0.00(100.0%) 
 MO    26 (   26) HAS LZ(WEIGHT)= 0.00(100.0%) 
 MO    27 (   27) HAS LZ(WEIGHT)= 0.00(100.0%) 
 MO    28 (   28) HAS LZ(WEIGHT)= 0.00(100.0%) 
 MO    29 (   29) HAS LZ(WEIGHT)= 0.00(100.0%) 
 MO    30 (   30) HAS LZ(WEIGHT)= 0.00(100.0%) 
 MO    31 (   31) HAS LZ(WEIGHT)= 0.00(100.0%) 
 MO    32 (   32) HAS LZ(WEIGHT)= 0.00(100.0%) 

          ------------
          EIGENVECTORS
          ------------

                      1          2          3          4          5
                  -11.3032    -0.7495    -0.4088    -0.1338     0.0090
                     A1         A1         A1         B2         B1  
    1  C  1  S    1.002324  -0.003483   0.003631  -0.000000  -0.000000
    2  C  1  S    0.002548   0.386297   0.280636  -0.000000  -0.000000
    3  C  1  S   -0.020589   0.328318   0.464767  -0.000000  -0.000000
    4  C  1  X   -0.000000   0.000000   0.000000  -0.000000   0.401400
    5  C  1  Y   -0.000000   0.000000   0.000000   0.649045  -0.000000
    6  C  1  Z    0.003008   0.193212  -0.442805  -0.000000  -0.000000
    7  C  1  X   -0.000000   0.000000   0.000000  -0.000000   0.389010
    8  C  1  Y   -0.000000   0.000000   0.000000   0.464052  -0.000000
    9  C  1  Z   -0.008361   0.056486  -0.244038  -0.000000  -0.000000
   10  C  1 XX   -0.000903  -0.010659   0.015720  -0.000000  -0.000000
   11  C  1 YY   -0.000266  -0.008660   0.015745  -0.000000  -0.000000
   12  C  1 ZZ    0.001169   0.019319  -0.031464  -0.000000  -0.000000
   13  C  1 XY   -0.000000   0.000000   0.000000  -0.000000  -0.000000
   14  C  1 XZ   -0.000000   0.000000   0.000000  -0.000000   0.011865
   15  C  1 YZ   -0.000000   0.000000   0.000000   0.022198  -0.000000
   16  C  1  S   -0.004185  -0.028389   0.094560  -0.000000  -0.000000
   17  C  1  X   -0.000000   0.000000   0.000000  -0.000000   0.477022
   18  C  1  Y   -0.000000   0.000000   0.000000   0.042885  -0.000000
   19  C  1  Z   -0.001422  -0.004454  -0.013850  -0.000000  -0.000000
   20  C  1 XX    0.001021  -0.001687   0.005518  -0.000000  -0.000000
   21  C  1 YY    0.000991   0.003968   0.009211  -0.000000  -0.000000
   22  C  1 ZZ   -0.002012  -0.002282  -0.014729  -0.000000  -0.000000
   23  C  1 XY   -0.000000   0.000000   0.000000  -0.000000  -0.000000
   24  C  1 XZ   -0.000000   0.000000   0.000000  -0.000000   0.043413
   25  C  1 YZ   -0.000000   0.000000   0.000000   0.029247  -0.000000
   26  H  2  S   -0.000299   0.344932  -0.263149  -0.000000  -0.000000
   27  H  2  S    0.017921   0.083136  -0.188038  -0.000000  -0.000000
   28  H  2  X   -0.000000   0.000000   0.000000  -0.000000   0.015870
   29  H  2  Y   -0.000000   0.000000   0.000000   0.018382  -0.000000
   30  H  2  Z    0.001270  -0.034791   0.007359  -0.000000  -0.000000
   31  H  2  S    0.001419   0.019807  -0.027241  -0.000000  -0.000000
   32  H  2  X   -0.000000   0.000000   0.000000  -0.000000   0.001461
   33  H  2  Y   -0.000000   0.000000   0.000000  -0.003023  -0.000000
   34  H  2  Z   -0.005842  -0.001738   0.016328  -0.000000  -0.000000

                      6          7          8          9         10
                    0.0363     0.1069     0.1184     0.1437     0.1725
                     A1         B2         A1         B1         A1  
    1  C  1  S    0.002687  -0.000000  -0.028278   0.000000  -0.042406
    2  C  1  S   -0.064377  -0.000000   0.002303   0.000000  -0.221632
    3  C  1  S   -0.553721  -0.000000   0.668421   0.000000   1.124057
    4  C  1  X   -0.000000  -0.000000  -0.000000  -0.323446   0.000000
    5  C  1  Y   -0.000000  -0.198045  -0.000000   0.000000   0.000000
    6  C  1  Z   -0.048658  -0.000000  -0.121051   0.000000  -0.067675
    7  C  1  X   -0.000000  -0.000000  -0.000000  -0.557548   0.000000
    8  C  1  Y   -0.000000  -0.292189  -0.000000   0.000000   0.000000
    9  C  1  Z   -0.387512  -0.000000   0.084547   0.000000   1.420240
   10  C  1 XX   -0.000107  -0.000000   0.011846   0.000000  -0.001168
   11  C  1 YY   -0.003395  -0.000000   0.018260   0.000000  -0.005400
   12  C  1 ZZ    0.003502  -0.000000  -0.030106   0.000000   0.006567
   13  C  1 XY   -0.000000  -0.000000  -0.000000   0.000000   0.000000
   14  C  1 XZ   -0.000000  -0.000000  -0.000000  -0.025525   0.000000
   15  C  1 YZ   -0.000000  -0.017378  -0.000000   0.000000   0.000000
   16  C  1  S   -2.218591  -0.000000   1.225047   0.000000   6.087489
   17  C  1  X   -0.000000  -0.000000  -0.000000   1.131947   0.000000
   18  C  1  Y   -0.000000   1.177105  -0.000000   0.000000   0.000000
   19  C  1  Z   -0.689194  -0.000000   1.671643   0.000000   1.640251
   20  C  1 XX    0.051287  -0.000000  -0.091132   0.000000  -0.163104
   21  C  1 YY    0.049160  -0.000000  -0.078506   0.000000  -0.168356
   22  C  1 ZZ   -0.100447  -0.000000   0.169638   0.000000   0.331460
   23  C  1 XY   -0.000000  -0.000000  -0.000000   0.000000   0.000000
   24  C  1 XZ   -0.000000  -0.000000  -0.000000   0.091904   0.000000
   25  C  1 YZ   -0.000000   0.081757  -0.000000   0.000000   0.000000
   26  H  2  S    0.000914  -0.000000  -0.059586   0.000000  -0.056610
   27  H  2  S    0.948073  -0.000000  -1.252236   0.000000  -3.762256
   28  H  2  X   -0.000000  -0.000000  -0.000000   0.004222   0.000000
   29  H  2  Y   -0.000000   0.008239  -0.000000   0.000000   0.000000
   30  H  2  Z    0.011178  -0.000000   0.009019   0.000000   0.027903
   31  H  2  S    2.711821  -0.000000  -1.046310   0.000000  -3.701003
   32  H  2  X   -0.000000  -0.000000  -0.000000  -0.231620   0.000000
   33  H  2  Y   -0.000000  -0.131957  -0.000000   0.000000   0.000000
   34  H  2  Z   -0.290948  -0.000000   0.154267   0.000000   1.124277

                     11         12         13         14         15
                    0.2709     0.3534     0.3685     0.4284     0.4292
                     A1         B2         B1         A1         A2  
    1  C  1  S    0.015786   0.000000   0.000000   0.011209   0.000000
    2  C  1  S   -0.059340   0.000000   0.000000   0.007725   0.000000
    3  C  1  S   -0.379670   0.000000   0.000000  -0.379923   0.000000
    4  C  1  X    0.000000   0.000000  -0.115092  -0.000000   0.000000
    5  C  1  Y    0.000000  -0.126223   0.000000  -0.000000   0.000000
    6  C  1  Z   -0.299353   0.000000   0.000000  -0.021444   0.000000
    7  C  1  X    0.000000   0.000000  -0.831426  -0.000000   0.000000
    8  C  1  Y    0.000000  -0.672405   0.000000  -0.000000   0.000000
    9  C  1  Z   -0.892102   0.000000   0.000000  -0.275426   0.000000
   10  C  1 XX    0.010057   0.000000   0.000000   0.022411   0.000000
   11  C  1 YY   -0.012528   0.000000   0.000000  -0.003720   0.000000
   12  C  1 ZZ    0.002472   0.000000   0.000000  -0.018691   0.000000
   13  C  1 XY    0.000000   0.000000   0.000000  -0.000000  -0.016507
   14  C  1 XZ    0.000000   0.000000   0.016607  -0.000000   0.000000
   15  C  1 YZ    0.000000   0.036550   0.000000  -0.000000   0.000000
   16  C  1  S   -1.253965   0.000000   0.000000  -0.571462   0.000000
   17  C  1  X    0.000000   0.000000  -0.249478  -0.000000   0.000000
   18  C  1  Y    0.000000  -0.323627   0.000000  -0.000000   0.000000
   19  C  1  Z   -0.559267   0.000000   0.000000  -0.249147   0.000000
   20  C  1 XX    0.054582   0.000000   0.000000  -0.776060   0.000000
   21  C  1 YY   -0.025650   0.000000   0.000000   0.951225   0.000000
   22  C  1 ZZ   -0.028932   0.000000   0.000000  -0.175166   0.000000
   23  C  1 XY    0.000000   0.000000   0.000000  -0.000000   1.008218
   24  C  1 XZ    0.000000   0.000000  -0.001299  -0.000000   0.000000
   25  C  1 YZ    0.000000   0.026566   0.000000  -0.000000   0.000000
   26  H  2  S    0.170228   0.000000   0.000000  -0.036157   0.000000
   27  H  2  S    2.087828   0.000000   0.000000   0.906386   0.000000
   28  H  2  X    0.000000   0.000000  -0.026933  -0.000000   0.000000
   29  H  2  Y    0.000000  -0.020950   0.000000  -0.000000   0.000000
   30  H  2  Z   -0.026494   0.000000   0.000000  -0.005952   0.000000
   31  H  2  S    0.141169   0.000000   0.000000   0.224520   0.000000
   32  H  2  X    0.000000   0.000000   1.461972  -0.000000   0.000000
   33  H  2  Y    0.000000   1.407796   0.000000  -0.000000   0.000000
   34  H  2  Z    0.478573   0.000000   0.000000  -0.093871   0.000000

                     16         17         18         19         20
                    0.4943     0.5708     0.5728     0.5896     0.7684
                     A1         B2         A1         B1         B2  
    1  C  1  S    0.138311  -0.000000   0.089889  -0.000000   0.000000
    2  C  1  S    0.128500  -0.000000  -0.023521  -0.000000   0.000000
    3  C  1  S   -5.753030  -0.000000  -6.774985  -0.000000   0.000000
    4  C  1  X    0.000000  -0.000000  -0.000000  -0.216305   0.000000
    5  C  1  Y    0.000000  -0.322086  -0.000000  -0.000000  -0.964229
    6  C  1  Z   -0.111105  -0.000000  -0.058637  -0.000000   0.000000
    7  C  1  X    0.000000  -0.000000  -0.000000  -0.991222   0.000000
    8  C  1  Y    0.000000  -0.635804  -0.000000  -0.000000   2.121905
    9  C  1  Z   -3.319087  -0.000000  -3.196709  -0.000000   0.000000
   10  C  1 XX    0.000724  -0.000000   0.023795  -0.000000   0.000000
   11  C  1 YY    0.024858  -0.000000  -0.006085  -0.000000   0.000000
   12  C  1 ZZ   -0.025582  -0.000000  -0.017711  -0.000000   0.000000
   13  C  1 XY    0.000000  -0.000000  -0.000000  -0.000000   0.000000
   14  C  1 XZ    0.000000  -0.000000  -0.000000   0.048233   0.000000
   15  C  1 YZ    0.000000   0.027310  -0.000000  -0.000000  -0.006701
   16  C  1  S   -5.350815  -0.000000  -2.405365  -0.000000   0.000000
   17  C  1  X    0.000000  -0.000000  -0.000000  -0.470730   0.000000
   18  C  1  Y    0.000000  -0.560913  -0.000000  -0.000000  -0.284924
   19  C  1  Z   -1.864273  -0.000000  -0.225397  -0.000000   0.000000
   20  C  1 XX    0.831402  -0.000000  -0.260275  -0.000000   0.000000
   21  C  1 YY    0.608651  -0.000000  -0.161797  -0.000000   0.000000
   22  C  1 ZZ   -1.440053  -0.000000   0.422072  -0.000000   0.000000
   23  C  1 XY    0.000000  -0.000000  -0.000000  -0.000000   0.000000
   24  C  1 XZ    0.000000  -0.000000  -0.000000  -1.789626   0.000000
   25  C  1 YZ    0.000000  -1.657076  -0.000000  -0.000000   0.917789
   26  H  2  S   -0.162575  -0.000000   0.193742  -0.000000   0.000000
   27  H  2  S    9.721938  -0.000000   7.522218  -0.000000   0.000000
   28  H  2  X    0.000000  -0.000000  -0.000000  -0.031144   0.000000
   29  H  2  Y    0.000000  -0.037811  -0.000000  -0.000000  -0.040054
   30  H  2  Z   -0.012978  -0.000000   0.006777  -0.000000   0.000000
   31  H  2  S    2.311123  -0.000000   1.090733  -0.000000   0.000000
   32  H  2  X    0.000000  -0.000000  -0.000000   2.154309   0.000000
   33  H  2  Y    0.000000   1.974773  -0.000000  -0.000000  -1.402711
   34  H  2  Z   -2.717157  -0.000000  -4.261198  -0.000000   0.000000

                     21         22         23         24         25
                    0.8567     0.8581     0.9572     1.4992     1.5318
                     A1         B1         A1         B2         B1  
    1  C  1  S   -0.048232  -0.000000  -0.356201   0.000000   0.000000
    2  C  1  S   -0.184515  -0.000000  -0.901492   0.000000   0.000000
    3  C  1  S   -1.822984  -0.000000   1.927023   0.000000   0.000000
    4  C  1  X    0.000000  -1.085274  -0.000000   0.000000  -0.088189
    5  C  1  Y    0.000000  -0.000000  -0.000000  -0.071657   0.000000
    6  C  1  Z    0.966811  -0.000000   0.098074   0.000000   0.000000
    7  C  1  X    0.000000   1.878887  -0.000000   0.000000  -0.179451
    8  C  1  Y    0.000000  -0.000000  -0.000000  -0.214245   0.000000
    9  C  1  Z   -2.672416  -0.000000  -0.643854   0.000000   0.000000
   10  C  1 XX    0.086808  -0.000000  -0.117830   0.000000   0.000000
   11  C  1 YY    0.097402  -0.000000  -0.164708   0.000000   0.000000
   12  C  1 ZZ   -0.184210  -0.000000   0.282538   0.000000   0.000000
   13  C  1 XY    0.000000  -0.000000  -0.000000   0.000000   0.000000
   14  C  1 XZ    0.000000  -0.007553  -0.000000   0.000000   0.815424
   15  C  1 YZ    0.000000  -0.000000  -0.000000   0.840176   0.000000
   16  C  1  S   -2.162829  -0.000000  -1.321784   0.000000   0.000000
   17  C  1  X    0.000000  -0.310647  -0.000000   0.000000   0.023765
   18  C  1  Y    0.000000  -0.000000  -0.000000   0.019044   0.000000
   19  C  1  Z   -0.339153  -0.000000  -0.125328   0.000000   0.000000
   20  C  1 XX    0.205612  -0.000000   0.472360   0.000000   0.000000
   21  C  1 YY    0.186753  -0.000000   0.518337   0.000000   0.000000
   22  C  1 ZZ   -0.392365  -0.000000  -0.990697   0.000000   0.000000
   23  C  1 XY    0.000000  -0.000000  -0.000000   0.000000   0.000000
   24  C  1 XZ    0.000000   0.669399  -0.000000   0.000000  -0.657026
   25  C  1 YZ    0.000000  -0.000000  -0.000000  -0.710869   0.000000
   26  H  2  S   -0.214258  -0.000000   1.122429   0.000000   0.000000
   27  H  2  S    4.138116  -0.000000  -0.804321   0.000000   0.000000
   28  H  2  X    0.000000  -0.064132  -0.000000   0.000000   0.598316
   29  H  2  Y    0.000000  -0.000000  -0.000000   0.570756   0.000000
   30  H  2  Z   -0.241051  -0.000000   0.219998   0.000000   0.000000
   31  H  2  S    0.668916  -0.000000   0.722198   0.000000   0.000000
   32  H  2  X    0.000000  -1.023463  -0.000000   0.000000   0.051200
   33  H  2  Y    0.000000  -0.000000  -0.000000   0.097110   0.000000
   34  H  2  Z   -0.659110  -0.000000   0.669946   0.000000   0.000000

                     26         27         28         29         30
                    1.5877     1.6112     1.6155     2.0818     2.1229
                     A1         A2         A1         A1         B2  
    1  C  1  S    0.909860  -0.000000   0.400573  -0.911493  -0.000000
    2  C  1  S    1.814725  -0.000000   0.790029  -1.788590  -0.000000
    3  C  1  S   -9.129257  -0.000000  -4.094571   8.949343  -0.000000
    4  C  1  X   -0.000000  -0.000000   0.000000   0.000000  -0.000000
    5  C  1  Y   -0.000000  -0.000000   0.000000   0.000000  -0.168602
    6  C  1  Z    0.173797  -0.000000   0.076727  -0.340866  -0.000000
    7  C  1  X   -0.000000  -0.000000   0.000000   0.000000  -0.000000
    8  C  1  Y   -0.000000  -0.000000   0.000000   0.000000   0.303106
    9  C  1  Z   -4.684085  -0.000000  -2.126700   4.509299  -0.000000
   10  C  1 XX    0.106180  -0.000000  -1.024408  -0.452899  -0.000000
   11  C  1 YY   -0.652218  -0.000000   0.829115  -0.376795  -0.000000
   12  C  1 ZZ    0.546038  -0.000000   0.195293   0.829695  -0.000000
   13  C  1 XY   -0.000000   1.157692   0.000000   0.000000  -0.000000
   14  C  1 XZ   -0.000000  -0.000000   0.000000   0.000000  -0.000000
   15  C  1 YZ   -0.000000  -0.000000   0.000000   0.000000  -0.947146
   16  C  1  S   -3.087580  -0.000000  -1.359027   2.120687  -0.000000
   17  C  1  X   -0.000000  -0.000000   0.000000   0.000000  -0.000000
   18  C  1  Y   -0.000000  -0.000000   0.000000   0.000000   0.191295
   19  C  1  Z   -1.036930  -0.000000  -0.437059   0.448601  -0.000000
   20  C  1 XX    0.566199  -0.000000   0.777444  -0.325398  -0.000000
   21  C  1 YY    0.955704  -0.000000  -0.126434  -0.355182  -0.000000
   22  C  1 ZZ   -1.521904  -0.000000  -0.651010   0.680581  -0.000000
   23  C  1 XY   -0.000000  -0.569228   0.000000   0.000000  -0.000000
   24  C  1 XZ   -0.000000  -0.000000   0.000000   0.000000  -0.000000
   25  C  1 YZ   -0.000000  -0.000000   0.000000   0.000000   0.556327
   26  H  2  S    0.553847  -0.000000   0.318464  -1.283384  -0.000000
   27  H  2  S   10.000377  -0.000000   4.431088  -8.475320  -0.000000
   28  H  2  X   -0.000000  -0.000000   0.000000   0.000000  -0.000000
   29  H  2  Y   -0.000000  -0.000000   0.000000   0.000000   1.107281
   30  H  2  Z   -0.233894  -0.000000  -0.074782  -0.412256  -0.000000
   31  H  2  S    1.109086  -0.000000   0.492808  -0.783279  -0.000000
   32  H  2  X   -0.000000  -0.000000   0.000000   0.000000  -0.000000
   33  H  2  Y   -0.000000  -0.000000   0.000000   0.000000  -0.871105
   34  H  2  Z   -2.907326  -0.000000  -1.334647   3.342750  -0.000000

                     31         32
                    2.1328     2.6792
                     B1         A1  
    1  C  1  S   -0.000000   0.036737
    2  C  1  S   -0.000000   0.261891
    3  C  1  S   -0.000000   3.074453
    4  C  1  X   -0.179112   0.000000
    5  C  1  Y   -0.000000   0.000000
    6  C  1  Z   -0.000000   1.035144
    7  C  1  X    0.314561   0.000000
    8  C  1  Y   -0.000000   0.000000
    9  C  1  Z   -0.000000   1.733756
   10  C  1 XX   -0.000000  -0.607709
   11  C  1 YY   -0.000000  -0.604379
   12  C  1 ZZ   -0.000000   1.212088
   13  C  1 XY   -0.000000   0.000000
   14  C  1 XZ   -0.968264   0.000000
   15  C  1 YZ   -0.000000   0.000000
   16  C  1  S   -0.000000   0.483716
   17  C  1  X    0.187521   0.000000
   18  C  1  Y   -0.000000   0.000000
   19  C  1  Z   -0.000000   0.105930
   20  C  1 XX   -0.000000  -0.075324
   21  C  1 YY   -0.000000  -0.074464
   22  C  1 ZZ   -0.000000   0.149788
   23  C  1 XY   -0.000000   0.000000
   24  C  1 XZ    0.564311   0.000000
   25  C  1 YZ   -0.000000   0.000000
   26  H  2  S   -0.000000  -1.684691
   27  H  2  S   -0.000000  -2.814232
   28  H  2  X    1.091627   0.000000
   29  H  2  Y   -0.000000   0.000000
   30  H  2  Z   -0.000000   1.619599
   31  H  2  S   -0.000000  -0.039259
   32  H  2  X   -0.867602   0.000000
   33  H  2  Y   -0.000000   0.000000
   34  H  2  Z   -0.000000   0.693002
 ...... END OF ROHF CALCULATION ......
 STEP CPU TIME =     0.02 TOTAL CPU TIME =          0.1 (      0.0 MIN)
 TOTAL WALL CLOCK TIME=          0.1 SECONDS, CPU UTILIZATION IS    94.85%

     ----------------------------------------------------------------
     PROPERTY VALUES FOR THE ROHF  SELF-CONSISTENT FIELD WAVEFUNCTION
     ----------------------------------------------------------------

          -----------------
          ENERGY COMPONENTS
          -----------------

         WAVEFUNCTION NORMALIZATION =       1.0000000000

                ONE ELECTRON ENERGY =     -56.5791289238
                TWO ELECTRON ENERGY =      15.4723863121
           NUCLEAR REPULSION ENERGY =       2.8354178630
                                      ------------------
                       TOTAL ENERGY =     -38.2713247488

 ELECTRON-ELECTRON POTENTIAL ENERGY =      15.4723863121
  NUCLEUS-ELECTRON POTENTIAL ENERGY =     -94.7952054503
   NUCLEUS-NUCLEUS POTENTIAL ENERGY =       2.8354178630
                                      ------------------
             TOTAL POTENTIAL ENERGY =     -76.4874012753
               TOTAL KINETIC ENERGY =      38.2160765265
                 VIRIAL RATIO (V/T) =       2.0014456801

  ...... PI ENERGY ANALYSIS ......

 ENERGY ANALYSIS:
            FOCK ENERGY=    -25.6343564084
          BARE H ENERGY=    -56.5791289238
     ELECTRONIC ENERGY =    -41.1067426661
         KINETIC ENERGY=     38.2160765265
          N-N REPULSION=      2.8354178630
           TOTAL ENERGY=    -38.2713248031
        SIGMA PART(1+2)=    -39.0018367214
               (K,V1,2)=     37.0182409334    -89.8019483684     13.7818707136
           PI PART(1+2)=     -2.1049059447
               (K,V1,2)=      1.1978355931     -4.9932570819      1.6905155441
  SIGMA SKELETON, ERROR=    -36.1664188585      0.0000000000
             MIXED PART= 0.00000E+00 0.00000E+00 0.00000E+00 0.00000E+00
 ...... END OF PI ENERGY ANALYSIS ......

          ---------------------------------------
          MULLIKEN AND LOWDIN POPULATION ANALYSES
          ---------------------------------------

     ATOMIC MULLIKEN POPULATION IN EACH MOLECULAR ORBITAL

                      1          2          3          4

                  2.000000   2.000000   2.000000   1.000000

    1             1.995219   1.295945   1.772480   0.996108
    2             0.004781   0.704055   0.227520   0.003892

          MULLIKEN SPHERICAL HARMONIC POPULATIONS
       ATOM           S       P       D      F      G      H      I    TOTAL
    1 C             1.92    1.59    0.01   0.00   0.00   0.00   0.00    3.53
    2 H             0.46    0.01    0.00   0.00   0.00   0.00   0.00    0.47

          MULLIKEN SPHERICAL HARMONIC POPULATIONS
       ATOM           S       P       D      F      G      H      I    TOTAL
    1 C             1.92    0.60    0.01   0.00   0.00   0.00   0.00    2.53
    2 H             0.46    0.00    0.00   0.00   0.00   0.00   0.00    0.47

     ATOMIC SPIN POPULATION (ALPHA MINUS BETA)
       ATOM         MULL.POP.                    LOW.POP.
    1 C             0.996108                     0.909341
    2 H             0.003892                     0.090659

               ----- POPULATIONS IN EACH AO -----
                             MULLIKEN      LOWDIN
              1  C  1  S      2.00462     1.87253
              2  C  1  S      0.85851     0.64880
              3  C  1  S      0.95641     0.39846
              4  C  1  X      0.00000     0.00000
              5  C  1  Y      0.58721     0.55422
              6  C  1  Z      0.78446     0.72602
              7  C  1  X      0.00000     0.00000
              8  C  1  Y      0.38855     0.32081
              9  C  1  Z      0.40493     0.53330
             10  C  1 XX      0.01651     0.15751
             11  C  1 YY      0.00001     0.16045
             12  C  1 ZZ      0.00000     0.19706
             13  C  1 XY      0.00000     0.00000
             14  C  1 XZ      0.00098     0.00000
             15  C  1 YZ      0.00000     0.00038
             16  C  1  S      0.02493     0.08916
             17  C  1  X      0.00000     0.00000
             18  C  1  Y      0.01803     0.03378
             19  C  1  Z      0.00885     0.06035
             20  C  1 XX      0.00438     0.03133
             21  C  1 YY      0.00003     0.03392
             22  C  1 ZZ      0.00000     0.05848
             23  C  1 XY      0.00000     0.00000
             24  C  1 XZ      0.00134     0.00000
             25  C  1 YZ      0.00000     0.00015
             26  H  2  S      0.74415     0.58467
             27  H  2  S      0.17099     0.21891
             28  H  2  X      0.00000     0.00000
             29  H  2  Y      0.00565     0.01722
             30  H  2  Z      0.02287     0.04403
             31  H  2  S      0.01179     0.03015
             32  H  2  X      0.00000     0.00000
             33  H  2  Y     -0.00175     0.07344
             34  H  2  Z     -0.01344     0.15487

          ----- MULLIKEN ATOMIC OVERLAP POPULATIONS -----
          (OFF-DIAGONAL ELEMENTS NEED TO BE MULTIPLIED BY 2)

             1           2

    1    5.8375001
    2    0.2222523   0.7179953

          TOTAL MULLIKEN AND LOWDIN ATOMIC POPULATIONS
       ATOM         MULL.POP.    CHARGE          LOW.POP.     CHARGE
    1 C             6.059752   -0.059752         5.876719    0.123281
    2 H             0.940248    0.059752         1.123281   -0.123281

          MULLIKEN SPHERICAL HARMONIC POPULATIONS
       ATOM           S       P       D      F      G      H      I    TOTAL
    1 C             3.84    2.19    0.02   0.00   0.00   0.00   0.00    6.06
    2 H             0.93    0.01    0.00   0.00   0.00   0.00   0.00    0.94

          -------------------------------
          BOND ORDER AND VALENCE ANALYSIS     BOND ORDER THRESHOLD=0.050
          -------------------------------

                   BOND                       BOND                       BOND
  ATOM PAIR DIST  ORDER      ATOM PAIR DIST  ORDER      ATOM PAIR DIST  ORDER
    1   2  1.120  0.901

                       TOTAL       BONDED        FREE
      ATOM            VALENCE     VALENCE     VALENCE
    1 C                 1.893       0.901       0.992
    2 H                 0.901       0.901       0.000

          -----------------------------------------
          ATOMIC SPIN DENSITY AT THE NUCLEUS (A.U.)
          -----------------------------------------
                            SPIN DENS    ALPHA DENS     BETA DENS
    1  C            6.0     0.0000000      60.92995      60.92995
    2  H            1.0     0.0000000       0.18722       0.18722

          ---------------------
          ELECTROSTATIC MOMENTS
          ---------------------

 POINT   1           X           Y           Z (BOHR)    CHARGE
                 0.000000    0.000000    0.163951       -0.00 (A.U.)
         DX          DY          DZ         /D/  (DEBYE)
     0.000000    0.000000    1.584923    1.584923
 ...... END OF PROPERTY EVALUATION ......
 STEP CPU TIME =     0.01 TOTAL CPU TIME =          0.1 (      0.0 MIN)
 TOTAL WALL CLOCK TIME=          0.1 SECONDS, CPU UTILIZATION IS    95.17%

     --------------------------------------------
     PARTIAL TWO ELECTRON INTEGRAL TRANSFORMATION
     --------------------------------------------

 NUMBER OF CORE MOLECULAR ORBITALS     =    0
 NUMBER OF OCCUPIED MOLECULAR ORBITALS =   32
 TOTAL NUMBER OF MOLECULAR ORBITALS    =   32
 TOTAL NUMBER OF ATOMIC ORBITALS       =   34
 THRESHOLD FOR KEEPING TRANSFORMED 2E- INTEGRALS = 1.000E-09
 AO INTEGRALS WILL BE READ IN FROM DISK...

 PLAN A: REQUIREMENTS FOR FULLY IN-MEMORY TRANSFORMATION:
 # OF WORDS AVAILABLE =             49999999
 # OF WORDS NEEDED    =               713210

 CHOOSING IN MEMORY PARTIAL TRANSFORMATION...
 TOTAL NUMBER OF TRANSFORMED 2E- INTEGRALS KEPT =        38433
 ... END OF INTEGRAL TRANSFORMATION ...
 STEP CPU TIME =     0.03 TOTAL CPU TIME =          0.1 (      0.0 MIN)
 TOTAL WALL CLOCK TIME=          0.1 SECONDS, CPU UTILIZATION IS    96.26%

     --------------------------------------------------
          FCIDUMP INTEGRAL FILE GENERATION
          WRITTEN BY J. EMILIANO DEUSTUA
     --------------------------------------------------
    WRITING INTEGRALS FROM SERIAL TRANSFORMATION

               713210  WORDS OF DYNAMIC MEMORY USED
 EXECUTION OF GAMESS TERMINATED NORMALLY 15:28:09 07-APR-2023    
 DDI: 263640 bytes (0.3 MB / 0 MWords) used by master data server.

 ----------------------------------------
 CPU timing information for all processes
 ========================================
 0: 0.230 + 0.32 = 0.263
 ----------------------------------------
 ddikick.x: exited gracefully.
----- accounting info -----
Files used on the master node coupled.cem.msu.edu were:
-rw-r--r-- 1 gururang piecuch      440 Apr  7 15:28 /scratch/gururang/cc-ccsdt-ch.F05
-rw-r--r-- 1 gururang piecuch   540048 Apr  7 15:28 /scratch/gururang/cc-ccsdt-ch.F08
-rw-r--r-- 1 gururang piecuch   544280 Apr  7 15:28 /scratch/gururang/cc-ccsdt-ch.F09
-rw-r--r-- 1 gururang piecuch  1897760 Apr  7 15:28 /scratch/gururang/cc-ccsdt-ch.F10
-rw-r--r-- 1 gururang piecuch 11960696 Apr  7 15:27 /scratch/gururang/cc-ccsdt-ch.MOE
Fri Apr  7 15:28:10 EDT 2023
0.200u 0.099s 0:01.62 17.9%	0+0k 0+152io 0pf+0w
