 &FCI NORB=19,NELEC=10,MS2=0
  ORBSYM=1,1,1,2,1,1,1,1,1,2,1,1,1,1,1,2,1,1,1,
  ISYM=1 UHF=.FALSE.
 &END
  0.4741103403620869D+01   1   1   1   1
  0.4411897962001862D+00   2   1   1   1
  0.1070028138144743D+01   2   2   1   1
  0.1429481920987584D+00   3   1   1   1
  0.8890821337450694D-01   3   2   1   1
  0.9496561120141893D+00   3   3   1   1
  0.1061796159107204D+01   4   4   1   1
  0.4385187701922324D-01   5   1   1   1
  0.5854115551076135D-01   5   2   1   1
  0.3131723287142773D-01   5   3   1   1
  0.6814468408882710D+00   5   5   1   1
 -0.5512407436352817D-01   6   1   1   1
 -0.7727238451826302D-01   6   2   1   1
 -0.2361578618652971D-01   6   3   1   1
  0.3536470915848995D+00   6   5   1   1
  0.5764555383863655D+00   6   6   1   1
 -0.9255552239864673D-01   7   1   1   1
 -0.1520419146123712D+00   7   2   1   1
  0.1506614661025202D+00   7   3   1   1
 -0.5829662048511293D-01   7   5   1   1
 -0.1805649080562390D-01   7   6   1   1
  0.3680102811886258D+00   7   7   1   1
  0.6409832269116223D-03   8   1   1   1
  0.3185793227972202D-02   8   2   1   1
 -0.6265269949627296D-02   8   3   1   1
 -0.3763093109358621D-01   8   5   1   1
 -0.8283898470497839D-01   8   6   1   1
  0.1895445300122363D-01   8   7   1   1
  0.2329266699395664D+00   8   8   1   1
  0.8300561607451283D-01   9   1   1   1
  0.1254923546678976D+00   9   2   1   1
 -0.1367194860521976D+00   9   3   1   1
 -0.3355510615851627D-01   9   5   1   1
 -0.4928242870936095D-01   9   6   1   1
 -0.1309950337836471D+00   9   7   1   1
 -0.1060577197097877D-01   9   8   1   1
  0.4949591947295981D+00   9   9   1   1
  0.4057325755213641D+00  10   4   1   1
  0.6633491649889078D+00  10  10   1   1
  0.8029315594275083D-01  11   1   1   1
  0.3342130855666700D-01  11   2   1   1
  0.3332373623799603D+00  11   3   1   1
  0.1239845203006910D+00  11   5   1   1
  0.9065903917642948D-01  11   6   1   1
  0.9341100238458838D-01  11   7   1   1
 -0.3317222564578685D-01  11   8   1   1
 -0.1233957223729809D+00  11   9   1   1
  0.6677096567528119D+00  11  11   1   1
 -0.4586081921859590D-03  12   1   1   1
 -0.2683865965783020D-01  12   2   1   1
  0.1349125956669035D+00  12   3   1   1
 -0.2641701582715416D+00  12   5   1   1
 -0.2769119685700738D+00  12   6   1   1
  0.1141821312511954D+00  12   7   1   1
  0.3892113453281307D-01  12   8   1   1
 -0.2297686186238265D-01  12   9   1   1
 -0.4681160592030970D-02  12  11   1   1
  0.7125239911783914D+00  12  12   1   1
  0.3312695740825282D+00  13   1   1   1
  0.3568068815527539D+00  13   2   1   1
  0.5561989437800196D-01  13   3   1   1
  0.2382169034336638D-01  13   5   1   1
 -0.9602001696762104D-01  13   6   1   1
 -0.1407203965627970D+00  13   7   1   1
  0.1103925376160476D-01  13   8   1   1
  0.9208900526032179D-01  13   9   1   1
  0.2004147556004300D-01  13  11   1   1
  0.6462954245254740D-02  13  12   1   1
  0.7407086637828296D+00  13  13   1   1
  0.4120949462963430D-01  14   1   1   1
  0.4829357821665189D-01  14   2   1   1
 -0.8779346824623190D-01  14   3   1   1
  0.5478364496600444D-02  14   5   1   1
  0.2221580272166206D-02  14   6   1   1
 -0.5589743144719441D-01  14   7   1   1
  0.8095794198084557D-03  14   8   1   1
  0.1252765322558487D+00  14   9   1   1
 -0.9747048539974154D-01  14  11   1   1
 -0.6964967401935929D-01  14  12   1   1
  0.5536787159429597D-01  14  13   1   1
  0.4501315754332877D+00  14  14   1   1
  0.8603896642004947D-02  15   1   1   1
  0.1421035800608492D-01  15   2   1   1
 -0.6276947071574007D-01  15   3   1   1
 -0.2612494032585995D-01  15   5   1   1
 -0.2451147378152399D-01  15   6   1   1
 -0.2600889475755022D-01  15   7   1   1
 -0.9468196917087354D-02  15   8   1   1
  0.8478871734315294D-01  15   9   1   1
 -0.8552407776934427D-01  15  11   1   1
 -0.1329619844180962D-02  15  12   1   1
  0.1758406366853248D-01  15  13   1   1
  0.1297396576126078D+00  15  14   1   1
  0.3699158529448968D+00  15  15   1   1
  0.4724206583706832D+00  16   4   1   1
  0.4329963991704820D+00  16  10   1   1
  0.1575355730865986D+01  16  16   1   1
  0.9062091240014848D-02  17   1   1   1
  0.4177612138074146D-02  17   2   1   1
  0.2601034666874723D-01  17   3   1   1
  0.3122719210695973D+00  17   5   1   1
  0.2952576042570948D+00  17   6   1   1
 -0.3593269254285852D-01  17   7   1   1
 -0.6194310019065506D-01  17   8   1   1
 -0.5599743089253972D-01  17   9   1   1
  0.1852954924807211D+00  17  11   1   1
 -0.4195865903012729D+00  17  12   1   1
 -0.4499818020767017D-01  17  13   1   1
  0.7114014738863503D-02  17  14   1   1
 -0.8169769217488225D-01  17  15   1   1
  0.1585377145633293D+01  17  17   1   1
 -0.4536571804065004D-01  18   1   1   1
  0.3651060055119165D-01  18   2   1   1
 -0.3749571921404254D+00  18   3   1   1
  0.8583610446138513D-02  18   5   1   1
  0.1846480603337122D-01  18   6   1   1
 -0.1490927797172818D+00  18   7   1   1
  0.4868642550565979D-03  18   8   1   1
  0.1598247477813317D+00  18   9   1   1
 -0.3650381899353449D+00  18  11   1   1
 -0.1977512822436444D+00  18  12   1   1
  0.6464331534244995D-01  18  13   1   1
  0.2191224907533091D+00  18  14   1   1
  0.1383623512421158D+00  18  15   1   1
  0.6616012164299609D-02  18  17   1   1
  0.1534833146344668D+01  18  18   1   1
  0.9214995606419016D+00  19   1   1   1
  0.4637567857202403D+00  19   2   1   1
  0.1474439709300723D+00  19   3   1   1
  0.4597473740811259D-01  19   5   1   1
 -0.5740090841697600D-01  19   6   1   1
 -0.1025828425896676D+00  19   7   1   1
  0.3531114557550402D-02  19   8   1   1
  0.1167436154893974D+00  19   9   1   1
  0.9502164435397661D-01  19  11   1   1
 -0.6178871499994914D-02  19  12   1   1
  0.4929459435744759D+00  19  13   1   1
  0.6723094414256973D-01  19  14   1   1
  0.7295910822159319D-02  19  15   1   1
  0.4111255988604567D-02  19  17   1   1
 -0.2413081586620314D-01  19  18   1   1
  0.2005951102814794D+01  19  19   1   1
  0.6709571578753287D-01   2   1   2   1
  0.1481688187610380D-01   2   2   2   1
  0.1743703580232063D-01   3   1   2   1
  0.8606043341858294D-02   3   2   2   1
  0.1224423694926047D-01   3   3   2   1
  0.1248631513168844D-01   4   4   2   1
  0.6569014088844032D-02   5   1   2   1
  0.1691356899208701D-02   5   2   2   1
  0.1207734329798000D-02   5   3   2   1
  0.5805637555016029D-02   5   5   2   1
 -0.8407107856660816D-02   6   1   2   1
 -0.2004108168341357D-02   6   2   2   1
 -0.1092423834169254D-02   6   3   2   1
  0.5075078084122457D-02   6   5   2   1
  0.5214822601879154D-02   6   6   2   1
 -0.1591180201430352D-01   7   1   2   1
 -0.2591109686348562D-02   7   2   2   1
  0.2207502871580050D-02   7   3   2   1
 -0.8986375483325127D-03   7   5   2   1
 -0.5012765481532392D-03   7   6   2   1
  0.1301508039182969D-02   7   7   2   1
  0.6551644653783472D-04   8   1   2   1
 -0.4470481183765904D-04   8   2   2   1
  0.8290020121722438D-04   8   3   2   1
 -0.9395507351189181D-03   8   5   2   1
 -0.8481237541957806D-03   8   6   2   1
  0.1380770911471150D-03   8   7   2   1
  0.1553542860124637D-03   8   8   2   1
  0.1458837175304652D-01   9   1   2   1
  0.2482235834640394D-02   9   2   2   1
 -0.3821223704292673D-02   9   3   2   1
 -0.6285057846193742D-03   9   5   2   1
 -0.9299386186100832D-03   9   6   2   1
 -0.1662707730259474D-02   9   7   2   1
  0.1589007735394311D-03   9   8   2   1
  0.1500650495404655D-02   9   9   2   1
  0.8981473348273346D-02  10   4   2   1
  0.6491204824253282D-02  10  10   2   1
  0.8809849883301487D-02  11   1   2   1
  0.4359351758405579D-02  11   2   2   1
  0.8799652844064540D-02  11   3   2   1
  0.3071517050038505D-02  11   5   2   1
  0.1383777246447109D-02  11   6   2   1
  0.1073254324563356D-02  11   7   2   1
 -0.5014734110529147D-03  11   8   2   1
 -0.2258422089660838D-02  11   9   2   1
  0.8012250608980587D-02  11  11   2   1
 -0.1631972890031390D-02  12   1   2   1
  0.5577871251583480D-03  12   2   2   1
  0.3498427360415793D-02  12   3   2   1
 -0.5805226194974659D-02  12   5   2   1
 -0.5808779956773469D-02  12   6   2   1
  0.1748105998718747D-02  12   7   2   1
  0.9330020354516773D-03  12   8   2   1
 -0.2615776967111157D-03  12   9   2   1
  0.3008933073689110D-03  12  11   2   1
  0.7631030149479409D-02  12  12   2   1
  0.5046143305696816D-01  13   1   2   1
  0.1192029450251173D-01  13   2   2   1
  0.4564909857948461D-02  13   3   2   1
  0.5677472217134052D-03  13   5   2   1
 -0.2130301527191786D-02  13   6   2   1
 -0.2252983764167074D-02  13   7   2   1
  0.9926111148365912D-04  13   8   2   1
  0.2119383296899487D-02  13   9   2   1
  0.3021807174221276D-02  13  11   2   1
  0.1160555714016890D-02  13  12   2   1
  0.9063347341186991D-02  13  13   2   1
  0.8690933404948019D-02  14   1   2   1
  0.1780998607015921D-02  14   2   2   1
 -0.4204275527346923D-02  14   3   2   1
  0.2397580315672102D-03  14   5   2   1
  0.8632495820238856D-04  14   6   2   1
 -0.1906621348379816D-02  14   7   2   1
  0.5497960145593915D-04  14   8   2   1
  0.1490391897610127D-02  14   9   2   1
 -0.3070640792517279D-02  14  11   2   1
 -0.1711548832382508D-02  14  12   2   1
  0.1181596262341151D-02  14  13   2   1
  0.8532134382369297D-03  14  14   2   1
  0.3030461485388878D-02  15   1   2   1
  0.5329379617080982D-03  15   2   2   1
 -0.3181680450808135D-02  15   3   2   1
 -0.1032844086200085D-02  15   5   2   1
 -0.9180476605472272D-03  15   6   2   1
 -0.1021122757444666D-02  15   7   2   1
  0.2330583409965100D-03  15   8   2   1
  0.1022243502285081D-02  15   9   2   1
 -0.2786972544894197D-02  15  11   2   1
 -0.8119697093045947D-05  15  12   2   1
  0.4212170685838843D-03  15  13   2   1
  0.4096017736797229D-03  15  14   2   1
  0.3912150684454101D-03  15  15   2   1
  0.2393595220661408D-01  16   4   2   1
  0.1730231924556149D-01  16  10   2   1
  0.5030290040063275D-01  16  16   2   1
  0.9286527240008796D-03  17   1   2   1
  0.3127902232286099D-03  17   2   2   1
  0.1380261657730604D-02  17   3   2   1
  0.1615545526774726D-01  17   5   2   1
  0.1510162833331150D-01  17   6   2   1
 -0.1861610651338947D-02  17   7   2   1
 -0.2651589020020641D-02  17   8   2   1
 -0.2535475270780100D-02  17   9   2   1
  0.7603249268829616D-02  17  11   2   1
 -0.1689695612491881D-01  17  12   2   1
 -0.1717692449380871D-02  17  13   2   1
  0.1296676750163951D-03  17  14   2   1
 -0.3397937755364136D-02  17  15   2   1
  0.5099422123425394D-01  17  17   2   1
  0.2837893705965465D-02  18   1   2   1
  0.1213503362481323D-03  18   2   2   1
 -0.2027509408588104D-01  18   3   2   1
  0.1786039285986399D-03  18   5   2   1
  0.1324027947712067D-02  18   6   2   1
 -0.7091724809154409D-02  18   7   2   1
 -0.2313548776059575D-04  18   8   2   1
  0.7943439675136043D-02  18   9   2   1
 -0.1556401472784229D-01  18  11   2   1
 -0.8266214717395349D-02  18  12   2   1
 -0.5715522903152912D-04  18  13   2   1
  0.1002322803060410D-01  18  14   2   1
  0.6795197552113722D-02  18  15   2   1
  0.2268767265877337D-03  18  17   2   1
  0.4962281037231642D-01  18  18   2   1
  0.1554642066730148D+00  19   1   2   1
  0.4073150412402493D-01  19   2   2   1
  0.1532907380110930D-01  19   3   2   1
  0.4069285022320028D-02  19   5   2   1
 -0.5446574960886592D-02  19   6   2   1
 -0.8446298348487731D-02  19   7   2   1
 -0.1161670196821148D-03  19   8   2   1
  0.7136226786891080D-02  19   9   2   1
  0.8947848737711823D-02  19  11   2   1
  0.9093988816716281D-03  19  12   2   1
  0.2880230366661287D-01  19  13   2   1
  0.3442015474723769D-02  19  14   2   1
  0.8765488161136759D-03  19  15   2   1
  0.9169935920468169D-03  19  17   2   1
 -0.1034195041395063D-01  19  18   2   1
  0.1224203791808039D+00  19  19   2   1
  0.7764668807968702D+00   2   2   2   2
  0.1609605972766499D-01   3   1   2   2
 -0.2762508243431899D-01   3   2   2   2
  0.6824409542360567D+00   3   3   2   2
  0.7284341287802529D+00   4   4   2   2
  0.1921162811886224D-02   5   1   2   2
  0.2795692532370508D-01   5   2   2   2
  0.1213358375996918D-01   5   3   2   2
  0.5210789505254998D+00   5   5   2   2
 -0.1852702601733882D-02   6   1   2   2
 -0.4117280727952360D-01   6   2   2   2
 -0.9912678256101603D-02   6   3   2   2
  0.2126423538144530D+00   6   5   2   2
  0.4392838326010139D+00   6   6   2   2
  0.8765506038103986D-03   7   1   2   2
 -0.8623263144234222D-01   7   2   2   2
  0.7433889912814491D-01   7   3   2   2
 -0.3592691525540282D-01   7   5   2   2
 -0.3122282503172146D-02   7   6   2   2
  0.3395880434207181D+00   7   7   2   2
 -0.1028214790395322D-03   8   1   2   2
  0.3487349612845239D-02   8   2   2   2
 -0.8905556886352599D-02   8   3   2   2
 -0.1271827289479133D-01   8   5   2   2
 -0.6002844644960351D-01   8   6   2   2
  0.1598970736525353D-01   8   7   2   2
  0.2285837093520353D+00   8   8   2   2
 -0.1785518791696109D-02   9   1   2   2
  0.5284636547848101D-01   9   2   2   2
 -0.2557676310030226D-01   9   3   2   2
 -0.1726251373417352D-01   9   5   2   2
 -0.2627225643415690D-01   9   6   2   2
 -0.9231961133513905D-01   9   7   2   2
 -0.1532388520944084D-01   9   8   2   2
  0.4656262260124358D+00   9   9   2   2
  0.1821898066505153D+00  10   4   2   2
  0.4996924414453518D+00  10  10   2   2
  0.1122979238855211D-01  11   1   2   2
 -0.4551093743883428D-02  11   2   2   2
  0.1431508942853816D+00  11   3   2   2
  0.5310558444179961D-01  11   5   2   2
  0.4727846251317262D-01  11   6   2   2
  0.6016135900810698D-01  11   7   2   2
 -0.1924133345189448D-01  11   8   2   2
 -0.6852172428202888D-01  11   9   2   2
  0.4857520313914435D+00  11  11   2   2
  0.3772036987101101D-02  12   1   2   2
 -0.1722482178264931D-01  12   2   2   2
  0.5265196922726603D-01  12   3   2   2
 -0.1144506974845746D+00  12   5   2   2
 -0.1333420402926977D+00  12   6   2   2
  0.6773872628746058D-01  12   7   2   2
  0.1577923699769399D-01  12   8   2   2
 -0.1898939479856524D-01  12   9   2   2
 -0.6264274569470455D-02  12  11   2   2
  0.5209378794836940D+00  12  12   2   2
  0.9512567119193998D-02  13   1   2   2
  0.1343274130395396D+00  13   2   2   2
  0.1650690739874393D-01  13   3   2   2
  0.1835760717904911D-01  13   5   2   2
 -0.5340749807683096D-01  13   6   2   2
 -0.8557882394224116D-01  13   7   2   2
  0.6970174718864372D-02  13   8   2   2
  0.4204194133507745D-01  13   9   2   2
 -0.9883163167593759D-02  13  11   2   2
 -0.6627148163022267D-02  13  12   2   2
  0.5592969654009149D+00  13  13   2   2
 -0.3228817883827926D-02  14   1   2   2
  0.1374720788380795D-02  14   2   2   2
  0.4640985957502813D-02  14   3   2   2
  0.5476347840978760D-03  14   5   2   2
  0.1818856825568370D-02  14   6   2   2
 -0.1450736929585256D-01  14   7   2   2
 -0.1241616170201510D-02  14   8   2   2
  0.1002324489195714D+00  14   9   2   2
 -0.3335176644077047D-01  14  11   2   2
 -0.3590192437550419D-01  14  12   2   2
  0.2873017377114377D-01  14  13   2   2
  0.4568547761125027D+00  14  14   2   2
 -0.2767955714830427D-02  15   1   2   2
 -0.5253959511603489D-02  15   2   2   2
  0.3726074121880862D-02  15   3   2   2
 -0.7614197882101617D-02  15   5   2   2
 -0.6406241365216430D-02  15   6   2   2
 -0.4086575562012151D-02  15   7   2   2
 -0.1483141695073376D-01  15   8   2   2
  0.6892405289477427D-01  15   9   2   2
 -0.3033325791931519D-01  15  11   2   2
 -0.1426090711917524D-02  15  12   2   2
  0.7869953949860847D-02  15  13   2   2
  0.1395429952492421D+00  15  14   2   2
  0.3759726488076594D+00  15  15   2   2
  0.8215813008875959D-01  16   4   2   2
  0.1380398951535166D+00  16  10   2   2
  0.7899716541778246D+00  16  16   2   2
  0.1606402322472136D-02  17   1   2   2
  0.2223845416820211D-02  17   2   2   2
  0.5644915138717400D-02  17   3   2   2
  0.4958993579656416D-01  17   5   2   2
  0.4835621461801418D-01  17   6   2   2
 -0.6145219981748061D-02  17   7   2   2
 -0.1791418727346348D-01  17   8   2   2
 -0.1310182462049044D-01  17   9   2   2
  0.5692957044045093D-01  17  11   2   2
 -0.1313541234427674D+00  17  12   2   2
 -0.1479367833261014D-01  17  13   2   2
  0.6781484090492612D-02  17  14   2   2
 -0.2664739203587983D-01  17  15   2   2
  0.7906483204011234D+00  17  17   2   2
 -0.2092678879820206D-01  18   1   2   2
 -0.4371006274765689D-02  18   2   2   2
 -0.6571159913639626D-01  18   3   2   2
  0.1420157818590217D-02  18   5   2   2
  0.2758759631666093D-02  18   6   2   2
 -0.2505922446814228D-01  18   7   2   2
  0.1263936741524732D-02  18   8   2   2
  0.2235812766304627D-01  18   9   2   2
 -0.1114790513869001D+00  18  11   2   2
 -0.5922930302549229D-01  18  12   2   2
  0.3761485558070245D-01  18  13   2   2
  0.5171837800135523D-01  18  14   2   2
  0.2603892092017284D-01  18  15   2   2
  0.1534229426062923D-02  18  17   2   2
  0.7794616651766627D+00  18  18   2   2
  0.2936033782295597D-01  19   1   2   2
  0.4798878133533827D-01  19   2   2   2
  0.2262010422636216D-01  19   3   2   2
  0.4610344251767926D-02  19   5   2   2
 -0.1593924876238766D-02  19   6   2   2
 -0.4447438100379029D-02  19   7   2   2
  0.3010054779742905D-02  19   8   2   2
  0.2500024637338808D-01  19   9   2   2
  0.2512206519258319D-01  19  11   2   2
 -0.2568588821060904D-02  19  12   2   2
  0.1500793082169254D+00  19  13   2   2
  0.1966067202047428D-01  19  14   2   2
 -0.4651646719404910D-02  19  15   2   2
 -0.2860623646989863D-02  19  17   2   2
  0.4428636039421444D-01  19  18   2   2
  0.8125132202823894D+00  19  19   2   2
  0.2882791955027816D-01   3   1   3   1
 -0.2185811140887098D-01   3   2   3   1
 -0.7484735263116830D-02   3   3   3   1
  0.3703582223853821D-02   4   4   3   1
  0.2709596543885009D-02   5   1   3   1
  0.4316644538159469D-03   5   2   3   1
 -0.1939182960042882D-02   5   3   3   1
  0.1691335296815695D-02   5   5   3   1
 -0.2559499107961897D-02   6   1   3   1
 -0.1261402126049697D-02   6   2   3   1
  0.2079076601267684D-02   6   3   3   1
  0.1463414915566358D-02   6   5   3   1
  0.1653997938502041D-02   6   6   3   1
  0.4202832452689043D-02   7   1   3   1
 -0.9586798088514301D-02   7   2   3   1
  0.4669423588679906D-03   7   3   3   1
 -0.1124573167840978D-02   7   5   3   1
  0.1210964781744678D-02   7   6   3   1
  0.5349528767015453D-02   7   7   3   1
 -0.1970707444055659D-03   8   1   3   1
  0.2834912856486401D-03   8   2   3   1
 -0.8029342717308044D-03   8   3   3   1
 -0.1978779656529753D-03   8   5   3   1
 -0.3502470149299067D-03   8   6   3   1
 -0.1677620079057640D-03   8   7   3   1
  0.3296843316508869D-04   8   8   3   1
 -0.5945119645183305D-02   9   1   3   1
  0.8542671730146978D-02   9   2   3   1
  0.4288651368035313D-02   9   3   3   1
  0.5568505026573986D-03   9   5   3   1
 -0.1264577614119765D-02   9   6   3   1
 -0.3039673123522573D-02   9   7   3   1
  0.1804314815390920D-04   9   8   3   1
  0.5570096962079199D-02   9   9   3   1
  0.2694456285164046D-02  10   4   3   1
  0.1933674791701124D-02  10  10   3   1
  0.2099741756852403D-01  11   1   3   1
 -0.1185559167208164D-01  11   2   3   1
 -0.4057545257320440D-02  11   3   3   1
 -0.7910398181078924D-03  11   5   3   1
  0.2547711443750156D-02  11   6   3   1
  0.3316453795322464D-02  11   7   3   1
  0.2054301132414402D-03  11   8   3   1
 -0.2913608674422578D-02  11   9   3   1
 -0.4959294253158292D-02  11  11   3   1
  0.8012930640885469D-02  12   1   3   1
 -0.6014565544880764D-02  12   2   3   1
 -0.1282188719551334D-02  12   3   3   1
 -0.2479220811061267D-02  12   5   3   1
 -0.8217216494546068D-03  12   6   3   1
  0.2238376738597936D-02  12   7   3   1
  0.4219575034967989D-03  12   8   3   1
 -0.2037872349912841D-02  12   9   3   1
 -0.1716200739830887D-02  12  11   3   1
  0.2172834196391854D-02  12  12   3   1
  0.1156550348030346D-01  13   1   3   1
  0.9006846494478183D-02  13   2   3   1
 -0.9880209689645689D-02  13   3   3   1
  0.2659957588835481D-03  13   5   3   1
 -0.1202524459140381D-02  13   6   3   1
 -0.6294969488347506D-02  13   7   3   1
  0.2549900256509782D-03  13   8   3   1
  0.6915278056923527D-02  13   9   3   1
 -0.1099902921689193D-01  13  11   3   1
 -0.5461145449112607D-02  13  12   3   1
  0.9143251644533558D-02  13  13   3   1
 -0.9083027788815323D-02  14   1   3   1
  0.4328505267157725D-02  14   2   3   1
  0.1793192560384727D-02  14   3   3   1
  0.4661613991609624D-03  14   5   3   1
 -0.5320296481168495D-03  14   6   3   1
 -0.1610926054909241D-02  14   7   3   1
 -0.2837590522292852D-03  14   8   3   1
  0.4269968749388182D-02  14   9   3   1
  0.1510927187695673D-03  14  11   3   1
 -0.1013697627294670D-02  14  12   3   1
  0.5154702295264041D-02  14  13   3   1
  0.7939849022406402D-02  14  14   3   1
 -0.6967788790675249D-02  15   1   3   1
  0.2420412444884200D-02  15   2   3   1
  0.1837497549421398D-02  15   3   3   1
 -0.2237227841381611D-04  15   5   3   1
 -0.5882672551624073D-03  15   6   3   1
 -0.7176722439634971D-03  15   7   3   1
 -0.2043200985027227D-03  15   8   3   1
  0.2749826835240459D-02  15   9   3   1
  0.6624496543566437D-03  15  11   3   1
  0.4222524356028263D-04  15  12   3   1
  0.2937447074831383D-02  15  13   3   1
  0.5460506794490235D-02  15  14   3   1
  0.4059050981405927D-02  15  15   3   1
  0.7425864863976660D-02  16   4   3   1
  0.5347139341232045D-02  16  10   3   1
  0.1563789864959094D-01  16  16   3   1
  0.3723214183024396D-02  17   1   3   1
 -0.4167848522899990D-03  17   2   3   1
  0.7532313275728137D-04  17   3   3   1
  0.4931318925608317D-02  17   5   3   1
  0.4758717595231605D-02  17   6   3   1
 -0.5312681132507242D-03  17   7   3   1
 -0.8371569294314348D-03  17   8   3   1
 -0.8189021797532905D-03  17   9   3   1
  0.1951073865439141D-02  17  11   3   1
 -0.5327530133945884D-02  17  12   3   1
 -0.1371337684403553D-02  17  13   3   1
  0.3417459274439221D-03  17  14   3   1
 -0.7618186321626057D-03  17  15   3   1
  0.1579923527423461D-01  17  17   3   1
 -0.5484829902041723D-01  18   1   3   1
  0.8504977566503919D-02  18   2   3   1
 -0.3101458571176489D-02  18   3   3   1
  0.1191404149988398D-02  18   5   3   1
 -0.8191790888152676D-03  18   6   3   1
 -0.4360939031540825D-02  18   7   3   1
  0.1634064644299384D-03  18   8   3   1
  0.4699082461166208D-02  18   9   3   1
 -0.1375863807692405D-02  18  11   3   1
 -0.2299793445375990D-02  18  12   3   1
  0.1359145536483937D-01  18  13   3   1
  0.2921335086059644D-02  18  14   3   1
  0.6966275441876416D-03  18  15   3   1
  0.6813197597186013D-03  18  17   3   1
  0.1082866254646039D-01  18  18   3   1
  0.4809952862398750D-01  19   1   3   1
  0.1574073133267077D-01  19   2   3   1
 -0.9251946508674261D-02  19   3   3   1
  0.9729921476043576D-03  19   5   3   1
 -0.1897233173787478D-02  19   6   3   1
 -0.8760989943117107D-02  19   7   3   1
  0.8508871789460912D-04  19   8   3   1
  0.9259945468139463D-02  19   9   3   1
 -0.9631505257327090D-02  19  11   3   1
 -0.5602946579074250D-02  19  12   3   1
  0.1277382410702838D-01  19  13   3   1
  0.9682527028448825D-02  19  14   3   1
  0.5963623164214352D-02  19  15   3   1
 -0.2178263462480244D-02  19  17   3   1
  0.3730846352448920D-01  19  18   3   1
  0.4343664660957904D-01  19  19   3   1
  0.1363625559193981D+00   3   2   3   2
  0.4029406486856838D-01   3   3   3   2
  0.4385262292781453D-01   4   4   3   2
 -0.7565472357117881D-04   5   1   3   2
  0.2439134057918533D-02   5   2   3   2
  0.9242576355568747D-02   5   3   3   2
  0.2523884530540925D-01   5   5   3   2
 -0.6006965692610625D-03   6   1   3   2
 -0.2208083133219231D-02   6   2   3   2
 -0.8278913427975994D-02   6   3   3   2
  0.1798579195506224D-01   6   5   3   2
  0.1931497194914947D-01   6   6   3   2
 -0.9982871023201364D-02   7   1   3   2
  0.2037873173835732D-01   7   2   3   2
  0.2404511523092605D-01   7   3   3   2
  0.1961059926320414D-02   7   5   3   2
 -0.1072239259545530D-01   7   6   3   2
 -0.3961629841371588D-01   7   7   3   2
  0.2038774997004742D-03   8   1   3   2
 -0.3120898975507484D-02   8   2   3   2
  0.8430962011317236D-02   8   3   3   2
 -0.1980041582240991D-02   8   5   3   2
 -0.3062602651517285D-02   8   6   3   2
  0.1704349399647375D-02   8   7   3   2
  0.3855258094066005D-02   8   8   3   2
  0.1091968755875924D-01   9   1   3   2
  0.2565371247418351D-02   9   2   3   2
 -0.7400044061811381D-01   9   3   3   2
 -0.3366824142584002D-02   9   5   3   2
  0.4207695231575455D-03   9   6   3   2
  0.1366198563962102D-01   9   7   3   2
  0.3399394147254006D-02   9   8   3   2
 -0.5789459102298308D-01   9   9   3   2
  0.2065601945538170D-01  10   4   3   2
  0.2083377848571003D-01  10  10   3   2
 -0.1710125526599820D-01  11   1   3   2
  0.3711384439999058D-01  11   2   3   2
  0.2986566362320965D-01  11   3   3   2
  0.1357212456360630D-01  11   5   3   2
 -0.6012618536096302D-02  11   6   3   2
 -0.2212810951374589D-01  11   7   3   2
 -0.7273792272877539D-02  11   8   3   2
  0.2422930721329606D-01  11   9   3   2
  0.5579406993267363D-01  11  11   3   2
 -0.8415806049101311D-02  12   1   3   2
  0.1254180174542911D-01  12   2   3   2
  0.1772851766548588D-01  12   3   3   2
 -0.1118067573470587D-01  12   5   3   2
 -0.1783770147875390D-01  12   6   3   2
 -0.6072442024759525D-02  12   7   3   2
 -0.3355055211451633D-04  12   8   3   2
  0.2104753754091897D-01  12   9   3   2
  0.7075677561462462D-02  12  11   3   2
  0.2215267261123656D-01  12  12   3   2
  0.7338132927706594D-02  13   1   3   2
  0.6495005944110109D-02  13   2   3   2
  0.1830829962532934D-01  13   3   3   2
  0.8925565553416436D-04  13   5   3   2
 -0.2252532997827487D-02  13   6   3   2
  0.4629183027272546D-02  13   7   3   2
 -0.5759830316513282D-04  13   8   3   2
 -0.1715454004046260D-01  13   9   3   2
  0.5077987918325032D-01  13  11   3   2
  0.2615564640584259D-01  13  12   3   2
 -0.9059940433574982D-02  13  13   3   2
  0.1043274317670179D-01  14   1   3   2
  0.1580060729180418D-01  14   2   3   2
 -0.4055510593199569D-01  14   3   3   2
  0.7089253801589040D-03  14   5   3   2
 -0.7688663758176298D-03  14   6   3   2
 -0.6347025687632829D-02  14   7   3   2
  0.5480467598784406D-02  14   8   3   2
 -0.3650747841144789D-01  14   9   3   2
 -0.1342289271880431D-01  14  11   3   2
  0.1642673916534402D-02  14  12   3   2
 -0.1454723798757634D-01  14  13   3   2
 -0.1000759846833590D+00  14  14   3   2
  0.6757131375823215D-02  15   1   3   2
  0.1128307272632938D-01  15   2   3   2
 -0.2973228023326873D-01  15   3   3   2
 -0.4933659124626529D-03  15   5   3   2
 -0.1348515278205062D-02  15   6   3   2
 -0.4115538533399444D-02  15   7   3   2
  0.3478174100549641D-02  15   8   3   2
 -0.2701426467730741D-01  15   9   3   2
 -0.1327216787939358D-01  15  11   3   2
  0.1976480791720368D-02  15  12   3   2
 -0.7376847908593569D-02  15  13   3   2
 -0.7805121510871221D-01  15  14   3   2
 -0.5327644356955939D-01  15  15   3   2
  0.1176596650267435D-01  16   4   3   2
  0.1480097883354573D-01  16  10   3   2
  0.5111483613404978D-01  16  16   3   2
 -0.2340047304579335D-02  17   1   3   2
 -0.2252239727233431D-04  17   2   3   2
 -0.4058818624899663D-03  17   3   3   2
  0.7252904256138945D-02  17   5   3   2
  0.7483868473900563D-02  17   6   3   2
 -0.8138090271300173D-03  17   7   3   2
 -0.1451868951007104D-02  17   8   3   2
 -0.2026295337052193D-02  17   9   3   2
  0.6829015391776835D-02  17  11   3   2
 -0.1392069378300586D-01  17  12   3   2
  0.9679778157550380D-03  17  13   3   2
 -0.4073980442708344D-02  17  14   3   2
 -0.6344165454856348D-02  17  15   3   2
  0.5138118848074786D-01  17  17   3   2
  0.4177075635621137D-01  18   1   3   2
  0.1434229245637728D-01  18   2   3   2
  0.2665458652732555D-02  18   3   3   2
  0.4825819839063477D-03  18   5   3   2
 -0.1320626964000346D-02  18   6   3   2
 -0.5730297473133463D-02  18   7   3   2
 -0.2063002851691896D-02  18   8   3   2
  0.5813077473866792D-02  18   9   3   2
 -0.1684582754473424D-01  18  11   3   2
 -0.6871190844639219D-02  18  12   3   2
 -0.3558453911246619D-01  18  13   3   2
  0.2358436631342382D-01  18  14   3   2
  0.2226848018449289D-01  18  15   3   2
 -0.6610467882937410D-04  18  17   3   2
  0.4722117734101669D-01  18  18   3   2
  0.1046703522867417D-01  19   1   3   2
  0.1235162661335480D-01  19   2   3   2
  0.1096882781747630D-02  19   3   3   2
  0.1358763524407546D-02  19   5   3   2
 -0.1271392405676087D-02  19   6   3   2
 -0.2521531009081804D-02  19   7   3   2
  0.7587065029527294D-04  19   8   3   2
  0.5568531374813626D-02  19   9   3   2
  0.3282925583447643D-02  19  11   3   2
 -0.4700453095943187D-03  19  12   3   2
  0.1591134919437921D-01  19  13   3   2
 -0.1003489099032844D-01  19  14   3   2
 -0.8059547385685852D-02  19  15   3   2
  0.5647290850107833D-02  19  17   3   2
 -0.1040095332844223D+00  19  18   3   2
  0.3705245322256692D-01  19  19   3   2
  0.7072999202031260D+00   3   3   3   3
  0.6538721602064178D+00   4   4   3   3
  0.6666879725296800D-03   5   1   3   3
  0.2609431491128594D-01   5   2   3   3
  0.1822999539555606D-01   5   3   3   3
  0.4767579649895421D+00   5   5   3   3
 -0.1208009003237710D-02   6   1   3   3
 -0.3405825542496309D-01   6   2   3   3
 -0.1633103610101236D-01   6   3   3   3
  0.1832093366160635D+00   6   5   3   3
  0.4046303346207000D+00   6   6   3   3
 -0.6216267848619583D-02   7   1   3   3
 -0.4538961197422128D-01   7   2   3   3
  0.7209201363058765D-01   7   3   3   3
 -0.2872770416250247D-01   7   5   3   3
 -0.4221144844592548D-02   7   6   3   3
  0.3247855334105391D+00   7   7   3   3
  0.7068770081850366D-04   8   1   3   3
  0.5071878654063597D-02   8   2   3   3
 -0.5346389213471256D-02   8   3   3   3
 -0.1139936919610292D-01   8   5   3   3
 -0.5260006346991714D-01   8   6   3   3
  0.1623190830009902D-01   8   7   3   3
  0.2230353985261891D+00   8   8   3   3
  0.6949730733078127D-02   9   1   3   3
  0.3246151504360615D-02   9   2   3   3
 -0.3979675510613692D-01   9   3   3   3
 -0.1690386378711328D-01   9   5   3   3
 -0.2049743295213207D-01   9   6   3   3