----- GAMESS execution script 'rungms' -----
This job is running on host linked.cem.msu.edu
under operating system Linux at Mon May 18 19:10:21 EDT 2020
Available scratch disk space (Kbyte units) at beginning of the job is
Filesystem      1K-blocks       Used  Available Use% Mounted on
/dev/sda1      5270545388 3341106344 1929439044  64% /scratch
GAMESS temporary binary files will be written to /scratch/gururang
GAMESS supplementary output files will be written to /home2/gururang/gamess/tests
Copying input file h2o-ccsd.inp to your run's scratch directory...

 Distributed Data Interface kickoff program.
 Initiating 1 compute processes on 1 nodes to run the following command:
 /home2/gururang/gamess/gamess.00.x h2o-ccsd 

          ******************************************************
          *      GAMESS VERSION = 30 JUN 2019 R1 Patch 1       *
          *             FROM IOWA STATE UNIVERSITY             *
          * M.W.SCHMIDT, K.K.BALDRIDGE, J.A.BOATZ, S.T.ELBERT, *
          *   M.S.GORDON, J.H.JENSEN, S.KOSEKI, N.MATSUNAGA,   *
          *          K.A.NGUYEN, S.J.SU, T.L.WINDUS,           *
          *       TOGETHER WITH M.DUPUIS, J.A.MONTGOMERY       *
          *         J.COMPUT.CHEM.  14, 1347-1363(1993)        *
          **************** 64 BIT LINUX VERSION ****************

  SINCE 1993, STUDENTS AND POSTDOCS WORKING AT IOWA STATE UNIVERSITY
  AND ALSO IN THEIR VARIOUS JOBS AFTER LEAVING ISU HAVE MADE IMPORTANT
  CONTRIBUTIONS TO THE CODE:
     IVANA ADAMOVIC, CHRISTINE AIKENS, YURI ALEXEEV, POOJA ARORA,
     ANDREY ASADCHEV, ROB BELL, PRADIPTA BANDYOPADHYAY, JONATHAN BENTZ,
     COLLEEN BERTONI, BRETT BODE, KURT BRORSEN, CALEB CARLIN, GALINA CHABAN,
     WEI CHEN, CHEOL HO CHOI, PAUL DAY, ALBERT DEFUSCO, NUWAN DESILVA,
     TIM DUDLEY, DMITRI FEDOROV, ALEX FINDLATER, GRAHAM FLETCHER, 
     MARK FREITAG, KURT GLAESEMANN, ANASTASIA GUNINA,
     DAN KEMP, GRANT MERRILL, NORIYUKI MINEZAWA, JONATHAN MULLIN,
     TAKESHI NAGATA, SEAN NEDD, HEATHER NETZLOFF, BOSILJKA NJEGIC, RYAN OLSON,
     MIKE PAK, BUU PHAM,
     SPENCER PRUITT, LUKE ROSKOP, JIM SHOEMAKER, LYUDMILA SLIPCHENKO,
     TONY SMITH, SAROM SOK LEANG, JIE SONG, TETSUYA TAKETSUGU, SIMON WEBB,
     PENG XU, SOOHAENG YOO, FEDERICO ZAHARIEV

  ADDITIONAL CODE HAS BEEN PROVIDED BY COLLABORATORS IN OTHER GROUPS:
     IOWA STATE UNIVERSITY:
          JOE IVANIC, AARON WEST, LAIMUTIS BYTAUTAS, KLAUS RUEDENBERG
     UNIVERSITY OF TOKYO: KIMIHIKO HIRAO, TAKAHITO NAKAJIMA,
          TAKAO TSUNEDA, MUNEAKI KAMIYA, SUSUMU YANAGISAWA,
          KIYOSHI YAGI, MAHITO CHIBA, SEIKEN TOKURA, NAOAKI KAWAKAMI
     UNIVERSITY OF AARHUS: FRANK JENSEN
     UNIVERSITY OF IOWA: VISVALDAS KAIRYS, HUI LI
     NATIONAL INST. OF STANDARDS AND TECHNOLOGY: WALT STEVENS, DAVID GARMER
     UNIVERSITY OF PISA: BENEDETTA MENNUCCI, JACOPO TOMASI
     UNIVERSITY OF MEMPHIS: HENRY KURTZ, PRAKASHAN KORAMBATH
     UNIVERSITY OF ALBERTA: TOBY ZENG, MARIUSZ KLOBUKOWSKI
     UNIVERSITY OF NEW ENGLAND: MARK SPACKMAN
     MIE UNIVERSITY: HIROAKI UMEDA
     NAT. INST. OF ADVANCED INDUSTRIAL SCIENCE AND TECHNOLOGY: KAZUO KITAURA
     MICHIGAN STATE UNIVERSITY:
          KAROL KOWALSKI, MARTA WLOCH, JEFFREY GOUR, JESSE LUTZ,
          WEI LI, JUN SHEN, J. EMILIANO DEUSTUA, PIOTR PIECUCH
     UNIVERSITY OF MINNESOTA:
          YINAN SHU
     UNIVERSITY OF SILESIA: MONIKA MUSIAL, STANISLAW KUCHARSKI
     FACULTES UNIVERSITAIRES NOTRE-DAME DE LA PAIX:
          OLIVIER QUINET, BENOIT CHAMPAGNE
     UNIVERSITY OF CALIFORNIA - SANTA BARBARA: BERNARD KIRTMAN
     INSTITUTE FOR MOLECULAR SCIENCE:
          KAZUYA ISHIMURA, MICHIO KATOUDA, AND SHIGERU NAGASE
     UNIVERSITY OF NOTRE DAME: ANNA POMOGAEVA, DAN CHIPMAN
     KYUSHU UNIVERSITY:
          HARUYUKI NAKANO,
          FENG LONG GU, JACEK KORCHOWIEC, MARCIN MAKOWSKI, AND YURIKO AOKI,
          HIROTOSHI MORI AND EISAKU MIYOSHI
     PENNSYLVANIA STATE UNIVERSITY:
          TZVETELIN IORDANOV, CHET SWALINA, JONATHAN SKONE,
          SHARON HAMMES-SCHIFFER
     WASEDA UNIVERSITY:
          MASATO KOBAYASHI, TOMOKO AKAMA, TSUGUKI TOUMA,
          TAKESHI YOSHIKAWA, YASUHIRO IKABATA, JUNJI SEINO,
          YUYA NAKAJIMA, HIROMI NAKAI
     NANJING UNIVERSITY: SHUHUA LI
     UNIVERSITY OF NEBRASKA:
          PEIFENG SU, DEJUN SI, NANDUN THELLAMUREGE, YALI WANG, HUI LI
     UNIVERSITY OF ZURICH: ROBERTO PEVERATI, KIM BALDRIDGE
     N. COPERNICUS UNIVERSITY AND JACKSON STATE UNIVERSITY:
          MARIA BARYSZ
     UNIVERSITY OF COPENHAGEN: Jimmy Kromann, CASPER STEINMANN
     TOKYO INSTITUTE OF TECHNOLOGY: HIROYA NAKATA
     NAGOYA UNIVERSITY: YOSHIO NISHIMOTO, STEPHAN IRLE
     MOSCOW STATE UNIVERSITY: VLADIMIR MIRONOV
     A.N.NESMEYANOV INSTITUTE OF ORGANOELEMENT COMPOUNDS OF RUSSIAN ACADEMY OF SCIENCES:
          IGOR S. GERASIMOV

 EXECUTION OF GAMESS BEGUN Mon May 18 19:10:21 2020

            ECHO OF THE FIRST FEW INPUT CARDS -
 INPUT CARD> $CONTRL SCFTYP=RHF CCTYP=CR-CCL RUNTYP=ENERGY UNITS=BOHR ISPHER=1 $END         
 INPUT CARD> $SYSTEM MWORDS=10000 $END                                                      
 INPUT CARD> $scf nconv=1.0d-8 diis=.true. $end                                             
 INPUT CARD> $CCINP nfzv=0 ncore=0 iconv=7 $END                                             
 INPUT CARD> $BASIS GBASIS=CCD $END                                                         
 INPUT CARD> $DATA                                                                          
 INPUT CARD>H20_Re                                                                          
 INPUT CARD>cnv 2                                                                           
 INPUT CARD>                                                                                
 INPUT CARD>H           1.0      0.0000000000      1.515263      -1.058898                  
 INPUT CARD>O	    8.0      0.0      0.0     -0.0090                                         
 INPUT CARD> $END                                                                           
 INPUT CARD>                                                                                
 ********** WORDS OF MEMORY AVAILABLE

     BASIS OPTIONS
     -------------
     GBASIS=CCD          IGAUSS=       0      POLAR=NONE    
     NDFUNC=       0     NFFUNC=       0     DIFFSP=       F
     NPFUNC=       0      DIFFS=       F     BASNAM=        


     RUN TITLE
     ---------
 H20_Re                                                                          

 THE POINT GROUP OF THE MOLECULE IS CNV     
 THE ORDER OF THE PRINCIPAL AXIS IS     2

 ATOM      ATOMIC                      COORDINATES (BOHR)
           CHARGE         X                   Y                   Z
 H           1.0    -0.0000000000       -1.5152630000       -1.0588980000
 H           1.0     0.0000000000        1.5152630000       -1.0588980000
 O           8.0     0.0000000000        0.0000000000       -0.0090000000

          INTERNUCLEAR DISTANCES (ANGS.)
          ------------------------------

                1 H          2 H          3 O     

   1 H       0.0000000    1.6036854 *  0.9755118 *
   2 H       1.6036854 *  0.0000000    0.9755118 *
   3 O       0.9755118 *  0.9755118 *  0.0000000  

  * ... LESS THAN  3.000


     ATOMIC BASIS SET
     ----------------
 THE CONTRACTED PRIMITIVE FUNCTIONS HAVE BEEN UNNORMALIZED
 THE CONTRACTED BASIS FUNCTIONS ARE NOW NORMALIZED TO UNITY

  SHELL TYPE  PRIMITIVE        EXPONENT          CONTRACTION COEFFICIENT(S)

 H         

      4   S       1            13.0100000    0.033498726390
      4   S       2             1.9620000    0.234800801174
      4   S       3             0.4446000    0.813682957883

      5   S       4             0.1220000    1.000000000000

      6   P       5             0.7270000    1.000000000000

 O         

      7   S       6         11720.0000000    0.000709645947
      7   S       7          1759.0000000    0.005467272292
      7   S       8           400.8000000    0.027823118610
      7   S       9           113.7000000    0.104747739711
      7   S      10            37.0300000    0.282920846357
      7   S      11            13.2700000    0.448495238698
      7   S      12             5.0250000    0.270816885213
      7   S      13             1.0130000    0.015450291607

      8   S      14         11720.0000000   -0.000314443412
      8   S      15          1759.0000000   -0.002482137681
      8   S      16           400.8000000   -0.012316355382
      8   S      17           113.7000000   -0.050538917344
      8   S      18            37.0300000   -0.139384903316
      8   S      19            13.2700000   -0.325077494818
      8   S      20             5.0250000   -0.229848307588
      8   S      21             1.0130000    1.095379346788

      9   S      22             0.3023000    1.000000000000

     10   P      23            17.7000000    0.062679166282
     10   P      24             3.8540000    0.333536565879
     10   P      25             1.0460000    0.741239641640

     11   P      26             0.2753000    1.000000000000

     12   D      27             1.1850000    1.000000000000

 TOTAL NUMBER OF BASIS SET SHELLS             =   12
 NUMBER OF CARTESIAN GAUSSIAN BASIS FUNCTIONS =   25
 NOTE: THIS RUN WILL RESTRICT THE MO VARIATION SPACE TO SPHERICAL HARMONICS.
 THE NUMBER OF ORBITALS KEPT IN THE VARIATIONAL SPACE WILL BE PRINTED LATER.
 NUMBER OF ELECTRONS                          =   10
 CHARGE OF MOLECULE                           =    0
 SPIN MULTIPLICITY                            =    1
 NUMBER OF OCCUPIED ORBITALS (ALPHA)          =    5
 NUMBER OF OCCUPIED ORBITALS (BETA )          =    5
 TOTAL NUMBER OF ATOMS                        =    3
 THE NUCLEAR REPULSION ENERGY IS        9.0093542297

     $CONTRL OPTIONS
     ---------------
 SCFTYP=RHF          RUNTYP=ENERGY       EXETYP=RUN     
 MPLEVL=       0     CITYP =NONE         CCTYP =CR-CCL       VBTYP =NONE    
 DFTTYP=NONE         TDDFT =NONE    
 MULT  =       1     ICHARG=       0     NZVAR =       0     COORD =UNIQUE  
 PP    =NONE         RELWFN=NONE         LOCAL =NONE         NUMGRD=       F
 ISPHER=       1     NOSYM =       0     MAXIT =      30     UNITS =BOHR    
 PLTORB=       F     MOLPLT=       F     AIMPAC=       F     FRIEND=        
 NPRINT=       7     IREST =       0     GEOM  =INPUT   
 NORMF =       0     NORMP =       0     ITOL  =      20     ICUT  =       9
 INTTYP=BEST         GRDTYP=BEST         QMTTOL= 1.0E-06

     $SYSTEM OPTIONS
     ---------------
  REPLICATED MEMORY= 10000000000 WORDS (ON EVERY NODE).
 DISTRIBUTED MEMDDI=           0 MILLION WORDS IN AGGREGATE,
 MEMDDI DISTRIBUTED OVER   1 PROCESSORS IS           0 WORDS/PROCESSOR.
 TOTAL MEMORY REQUESTED ON EACH PROCESSOR= 10000000000 WORDS.
 TIMLIM=      525600.00 MINUTES, OR     365.0 DAYS.
 PARALL= F  BALTYP=  DLB     KDIAG=    0  COREFL= F
 MXSEQ2=     300 MXSEQ3=     150  mem10=         0

          ----------------
          PROPERTIES INPUT
          ----------------

     MOMENTS            FIELD           POTENTIAL          DENSITY
 IEMOM =       1   IEFLD =       0   IEPOT =       0   IEDEN =       0
 WHERE =COMASS     WHERE =NUCLEI     WHERE =NUCLEI     WHERE =NUCLEI  
 OUTPUT=BOTH       OUTPUT=BOTH       OUTPUT=BOTH       OUTPUT=BOTH    
 IEMINT=       0   IEFINT=       0                     IEDINT=       0
                                                       MORB  =       0
          EXTRAPOLATION IN EFFECT
          DIIS IN EFFECT
 ORBITAL PRINTING OPTION: NPREO=     1    25     2     1

     -------------------------------
     INTEGRAL TRANSFORMATION OPTIONS
     -------------------------------
     NWORD  =            0
     CUTOFF = 1.0E-09     MPTRAN =       0
     DIRTRF =       F     AOINTS =DUP     

          ----------------------
          INTEGRAL INPUT OPTIONS
          ----------------------
 NOPK  =       1 NORDER=       0 SCHWRZ=       F

     -------------------------------------------
     EQUATION OF MOTION INPUT FOR EXCITED STATES
     -------------------------------------------
     OPTIONS FOR STATE SELECTION:
     GROUP =C2V       NSTATE= 0, 0, 0, 0, 0, 0, 0, 0    IROOT = 1, 0
     OPTIONS FOR THE EOM-CCSD:
     MEOM  =       0  MAXEOM=      50  MICEOM=      80  CVGEOM= 1.0E-07
     OPTIONS FOR PROPERTIES:
     CCPRP =       T  CCPRPE =       F
     OPTIONS FOR INITIAL GUESSES:
     MINIT =       2  MACT =       0  NOACT =       0  NUACT =       0
     NO DOUBLE EXCITATIONS WILL BE INCLUDED IN THE INITIAL GUESS

     ------------------------------------------
     THE POINT GROUP IS CNV, NAXIS= 2, ORDER= 4
     ------------------------------------------

 -- VARIATIONAL SPACE WILL BE RESTRICTED TO PURE SPHERICAL HARMONICS ONLY --
 AFTER EXCLUDING CONTAMINANT COMBINATIONS FROM THE CARTESIAN GAUSSIAN BASIS
 SET, THE NUMBER OF SPHERICAL HARMONICS KEPT IN THE VARIATION SPACE IS   24

     DIMENSIONS OF THE SYMMETRY SUBSPACES ARE
 A1  =   11     A2  =    2     B1  =    4     B2  =    7

 ..... DONE SETTING UP THE RUN .....
 STEP CPU TIME =     0.03 TOTAL CPU TIME =          0.0 (      0.0 MIN)
 TOTAL WALL CLOCK TIME=          0.0 SECONDS, CPU UTILIZATION IS    60.00%

          ********************
          1 ELECTRON INTEGRALS
          ********************
 ...... END OF ONE-ELECTRON INTEGRALS ......
 STEP CPU TIME =     0.02 TOTAL CPU TIME =          0.0 (      0.0 MIN)
 TOTAL WALL CLOCK TIME=          0.1 SECONDS, CPU UTILIZATION IS    83.33%

          -------------
          GUESS OPTIONS
          -------------
          GUESS =HUCKEL            NORB  =       0          NORDER=       0
          MIX   =       F          PRTMO =       F          PUNMO =       F
          TOLZ  = 1.0E-08          TOLE  = 1.0E-05
          SYMDEN=       F          PURIFY=       F

 INITIAL GUESS ORBITALS GENERATED BY HUCKEL   ROUTINE.
 HUCKEL GUESS REQUIRES      7030 WORDS.

 STATISTICS FOR GENERATION OF SYMMETRY ORBITAL -Q- MATRIX
 NUMBER OF CARTESIAN ATOMIC ORBITALS=         25
 NUMBER OF SPHERICAL CONTAMINANTS DROPPED=     1
 NUMBER OF LINEARLY DEPENDENT MOS DROPPED=     0
 TOTAL NUMBER OF MOS IN VARIATION SPACE=      24

 SYMMETRIES FOR INITIAL GUESS ORBITALS FOLLOW.   BOTH SET(S).
     5 ORBITALS ARE OCCUPIED (    1 CORE ORBITALS).
     2=A1       3=B2       4=A1       5=B1       6=B2       7=A1       8=A1  
     9=A1      10=A1      11=A1      12=A1      13=A1      14=A1      15=A2  
 ...... END OF INITIAL ORBITAL SELECTION ......
 STEP CPU TIME =     0.01 TOTAL CPU TIME =          0.1 (      0.0 MIN)
 TOTAL WALL CLOCK TIME=          0.1 SECONDS, CPU UTILIZATION IS    75.00%

                    ----------------------
                    AO INTEGRAL TECHNOLOGY
                    ----------------------
     S,P,L SHELL ROTATED AXIS INTEGRALS, REPROGRAMMED BY
        KAZUYA ISHIMURA (IMS) AND JOSE SIERRA (SYNSTAR).
     S,P,D,L SHELL ROTATED AXIS INTEGRALS PROGRAMMED BY
        KAZUYA ISHIMURA (INSTITUTE FOR MOLECULAR SCIENCE).
     S,P,D,F,G SHELL TO TOTAL QUARTET ANGULAR MOMENTUM SUM 5,
        ERIC PROGRAM BY GRAHAM FLETCHER (ELORET AND NASA ADVANCED
        SUPERCOMPUTING DIVISION, AMES RESEARCH CENTER).
     S,P,D,F,G,L SHELL GENERAL RYS QUADRATURE PROGRAMMED BY
        MICHEL DUPUIS (PACIFIC NORTHWEST NATIONAL LABORATORY).

          --------------------
          2 ELECTRON INTEGRALS
          --------------------

 THE -PK- OPTION IS OFF, THE INTEGRALS ARE NOT IN SUPERMATRIX FORM.
 STORING   15000 INTEGRALS/RECORD ON DISK, USING 12 BYTES/INTEGRAL.
 TWO ELECTRON INTEGRAL EVALUATION REQUIRES   90474 WORDS OF MEMORY.
 II,JST,KST,LST =  1  1  1  1 NREC =         1 INTLOC =    1
 II,JST,KST,LST =  2  1  1  1 NREC =         1 INTLOC =    1
 II,JST,KST,LST =  3  1  1  1 NREC =         1 INTLOC =    1
 II,JST,KST,LST =  4  1  1  1 NREC =         1 INTLOC =    1
 II,JST,KST,LST =  5  1  1  1 NREC =         1 INTLOC =    5
 II,JST,KST,LST =  6  1  1  1 NREC =         1 INTLOC =   32
 II,JST,KST,LST =  7  1  1  1 NREC =         1 INTLOC =  283
 II,JST,KST,LST =  8  1  1  1 NREC =         1 INTLOC =  506
 II,JST,KST,LST =  9  1  1  1 NREC =         1 INTLOC =  806
 II,JST,KST,LST = 10  1  1  1 NREC =         1 INTLOC = 1201
 II,JST,KST,LST = 11  1  1  1 NREC =         1 INTLOC = 2662
 II,JST,KST,LST = 12  1  1  1 NREC =         1 INTLOC = 5050
 TOTAL NUMBER OF NONZERO TWO-ELECTRON INTEGRALS =               13863
          1 INTEGRAL RECORDS WERE STORED ON DISK FILE  8.
  ...... END OF TWO-ELECTRON INTEGRALS .....
 STEP CPU TIME =     0.02 TOTAL CPU TIME =          0.1 (      0.0 MIN)
 TOTAL WALL CLOCK TIME=          0.1 SECONDS, CPU UTILIZATION IS    88.89%

          --------------------------
                 RHF SCF CALCULATION
          --------------------------

     NUCLEAR ENERGY =         9.0093542297
     MAXIT =   30     NPUNCH=    2
     EXTRAP=T  DAMP=F  SHIFT=F  RSTRCT=F  DIIS=T  DEM=F  SOSCF=F
     DENSITY MATRIX CONV=  1.00E-06
     MEMORY REQUIRED FOR RHF ITERS=     35390 WORDS.

 ITER EX DEM     TOTAL ENERGY        E CHANGE  DENSITY CHANGE    DIIS ERROR
   1  0  0      -75.7780842539   -75.7780842539   0.141565078   1.003379933
          * * *   INITIATING DIIS PROCEDURE   * * *
   2  1  0      -76.0107600771    -0.2326758232   0.051518956   0.086417089
   3  2  0      -76.0225934796    -0.0118334024   0.020803781   0.026090717
   4  3  0      -76.0239496051    -0.0013561256   0.007248681   0.004757538
   5  4  0      -76.0240240314    -0.0000744263   0.002253363   0.002429385
   6  5  0      -76.0240368620    -0.0000128306   0.001076964   0.000610758
   7  6  0      -76.0240384871    -0.0000016251   0.000148582   0.000075623
   8  7  0      -76.0240385108    -0.0000000237   0.000030604   0.000018851
   9  8  0      -76.0240385115    -0.0000000007   0.000003768   0.000002106
  10  9  0      -76.0240385115    -0.0000000000   0.000000195   0.000000288
  11 10  0      -76.0240385115    -0.0000000000   0.000000023   0.000000030

 RHF HAS CONVERGED, NOW COMPUTING EXACT TOTAL FOCK MATRIX
 FOR USE DURING THE COUPLED CLUSTER CALCULATION THAT FOLLOWS.

          -----------------
          DENSITY CONVERGED
          -----------------
     TIME TO FORM FOCK OPERATORS=       0.0 SECONDS (       0.0 SEC/ITER)
     TIME TO SOLVE SCF EQUATIONS=       0.1 SECONDS (       0.0 SEC/ITER)

 FINAL RHF ENERGY IS      -76.0240385115 AFTER  11 ITERATIONS

          ------------
          EIGENVECTORS
          ------------

                      1          2          3          4          5
                  -20.5500    -1.3230    -0.7002    -0.5510    -0.4895
                     A1         A1         B2         A1         B1  
    1  H  1  S   -0.000158   0.183005  -0.327795  -0.196291  -0.000000
    2  H  1  S    0.000439   0.010980  -0.088986  -0.044137  -0.000000
    3  H  1  X   -0.000000   0.000000  -0.000000  -0.000000   0.029990
    4  H  1  Y   -0.000529   0.037099  -0.026116  -0.029882  -0.000000
    5  H  1  Z   -0.000417   0.017647  -0.031016   0.009141  -0.000000
    6  H  2  S   -0.000158   0.183005   0.327795  -0.196291  -0.000000
    7  H  2  S    0.000439   0.010980   0.088986  -0.044137  -0.000000
    8  H  2  X   -0.000000   0.000000  -0.000000  -0.000000   0.029990
    9  H  2  Y    0.000529  -0.037099  -0.026116   0.029882  -0.000000
   10  H  2  Z   -0.000417   0.017647   0.031016   0.009141  -0.000000
   11  O  3  S    1.000869  -0.008144  -0.000000  -0.001759  -0.000000
   12  O  3  S    0.001095   0.445066  -0.000000   0.141509  -0.000000
   13  O  3  S   -0.002788   0.393262  -0.000000   0.325939  -0.000000
   14  O  3  X   -0.000000   0.000000  -0.000000  -0.000000   0.630933
   15  O  3  Y   -0.000000   0.000000   0.484322  -0.000000  -0.000000
   16  O  3  Z   -0.001648  -0.070564  -0.000000   0.551316  -0.000000
   17  O  3  X   -0.000000   0.000000  -0.000000  -0.000000   0.497732
   18  O  3  Y   -0.000000   0.000000   0.217202  -0.000000  -0.000000
   19  O  3  Z    0.000530   0.008273  -0.000000   0.383663  -0.000000
   20  O  3 XX   -0.000092  -0.003180  -0.000000   0.012664  -0.000000
   21  O  3 YY    0.000119   0.002628  -0.000000   0.004269  -0.000000
   22  O  3 ZZ   -0.000027   0.000551  -0.000000  -0.016933  -0.000000
   23  O  3 XY   -0.000000   0.000000  -0.000000  -0.000000  -0.000000
   24  O  3 XZ   -0.000000   0.000000  -0.000000  -0.000000  -0.017323
   25  O  3 YZ   -0.000000   0.000000  -0.025034  -0.000000  -0.000000

                      6          7          8          9         10
                    0.1832     0.2530     0.7983     0.8098     1.1626
                     A1         B2         B2         A1         A1  
    1  H  1  S   -0.070758   0.025450   0.938956   0.836993   0.451157
    2  H  1  S   -0.825239   1.384339  -0.691595  -0.553898   0.140565
    3  H  1  X    0.000000  -0.000000  -0.000000   0.000000   0.000000
    4  H  1  Y   -0.016447   0.020600  -0.072013  -0.265182   0.115673
    5  H  1  Z   -0.015047   0.015547  -0.163074  -0.027032   0.246343
    6  H  2  S   -0.070758  -0.025450  -0.938956   0.836993   0.451157
    7  H  2  S   -0.825239  -1.384339   0.691595  -0.553898   0.140565
    8  H  2  X    0.000000  -0.000000  -0.000000   0.000000   0.000000
    9  H  2  Y    0.016447   0.020600  -0.072013   0.265182  -0.115673
   10  H  2  Z   -0.015047  -0.015547   0.163074  -0.027032   0.246343
   11  O  3  S   -0.052297  -0.000000  -0.000000  -0.057505   0.011468
   12  O  3  S    0.076360  -0.000000  -0.000000  -0.238747  -0.069401
   13  O  3  S    0.997429  -0.000000  -0.000000   0.235912  -0.727469
   14  O  3  X    0.000000  -0.000000  -0.000000   0.000000   0.000000
   15  O  3  Y    0.000000   0.285460   0.293764   0.000000   0.000000
   16  O  3  Z   -0.190174  -0.000000  -0.000000   0.279493  -0.792201
   17  O  3  X    0.000000  -0.000000  -0.000000   0.000000   0.000000
   18  O  3  Y    0.000000   0.677824   0.418822   0.000000   0.000000
   19  O  3  Z   -0.329498  -0.000000  -0.000000   0.065030   1.222944
   20  O  3 XX   -0.010972  -0.000000  -0.000000  -0.085475   0.008509
   21  O  3 YY    0.005130  -0.000000  -0.000000   0.097635   0.002394
   22  O  3 ZZ    0.005843  -0.000000  -0.000000  -0.012159  -0.010904
   23  O  3 XY    0.000000  -0.000000  -0.000000   0.000000   0.000000
   24  O  3 XZ    0.000000  -0.000000  -0.000000   0.000000   0.000000
   25  O  3 YZ    0.000000  -0.020249   0.110346   0.000000   0.000000

                     11         12         13         14         15
                    1.2018     1.2479     1.4539     1.4981     1.7022
                     B1         B2         A2         A1         B1  
    1  H  1  S   -0.000000   0.396975  -0.000000   0.235525   0.000000
    2  H  1  S   -0.000000   0.775571  -0.000000  -0.246289   0.000000
    3  H  1  X    0.024001   0.000000   0.679949   0.000000   0.771339
    4  H  1  Y   -0.000000   0.338823  -0.000000   0.255812   0.000000
    5  H  1  Z   -0.000000   0.134681  -0.000000  -0.572593   0.000000
    6  H  2  S   -0.000000  -0.396975  -0.000000   0.235525   0.000000
    7  H  2  S   -0.000000  -0.775571  -0.000000  -0.246289   0.000000
    8  H  2  X    0.024001   0.000000  -0.679949   0.000000   0.771339
    9  H  2  Y   -0.000000   0.338823  -0.000000  -0.255812   0.000000
   10  H  2  Z   -0.000000  -0.134681  -0.000000  -0.572593   0.000000
   11  O  3  S   -0.000000   0.000000  -0.000000  -0.267683   0.000000
   12  O  3  S   -0.000000   0.000000  -0.000000  -0.667790   0.000000
   13  O  3  S   -0.000000   0.000000  -0.000000   0.817348   0.000000
   14  O  3  X   -0.968099   0.000000  -0.000000   0.000000   0.012408
   15  O  3  Y   -0.000000  -0.717928  -0.000000   0.000000   0.000000
   16  O  3  Z   -0.000000   0.000000  -0.000000  -0.174914   0.000000
   17  O  3  X    1.011809   0.000000  -0.000000   0.000000  -0.647247
   18  O  3  Y   -0.000000   1.764383  -0.000000   0.000000   0.000000
   19  O  3  Z   -0.000000   0.000000  -0.000000   0.652151   0.000000
   20  O  3 XX   -0.000000   0.000000  -0.000000  -0.053774   0.000000
   21  O  3 YY   -0.000000   0.000000  -0.000000  -0.066905   0.000000
   22  O  3 ZZ   -0.000000   0.000000  -0.000000   0.120679   0.000000
   23  O  3 XY   -0.000000   0.000000  -0.132286   0.000000   0.000000
   24  O  3 XZ    0.002431   0.000000  -0.000000   0.000000  -0.160877
   25  O  3 YZ   -0.000000  -0.034129  -0.000000   0.000000   0.000000

                     16         17         18         19         20
                    1.8826     1.8852     2.4298     2.4367     3.2381
                     B2         A1         B2         A1         B1  
    1  H  1  S    0.448845  -0.766040   0.303978  -0.480774  -0.000000
    2  H  1  S    0.112495  -0.372837   0.330190  -0.170597  -0.000000
    3  H  1  X    0.000000   0.000000  -0.000000  -0.000000   0.368861
    4  H  1  Y   -0.437792  -0.396789   0.696671  -0.797782  -0.000000
    5  H  1  Z    0.675670   0.124998   0.573367  -0.465932  -0.000000
    6  H  2  S   -0.448845  -0.766040  -0.303978  -0.480774  -0.000000
    7  H  2  S   -0.112495  -0.372837  -0.330190  -0.170597  -0.000000
    8  H  2  X    0.000000   0.000000  -0.000000  -0.000000   0.368861
    9  H  2  Y   -0.437792   0.396789   0.696671   0.797782  -0.000000
   10  H  2  Z   -0.675670   0.124998  -0.573367  -0.465932  -0.000000
   11  O  3  S    0.000000  -0.711991  -0.000000   0.234557  -0.000000
   12  O  3  S    0.000000  -1.568149  -0.000000   0.647517  -0.000000
   13  O  3  S    0.000000   2.879582  -0.000000   0.862477  -0.000000
   14  O  3  X    0.000000   0.000000  -0.000000  -0.000000   0.018968
   15  O  3  Y   -0.114094   0.000000   0.838600  -0.000000  -0.000000
   16  O  3  Z    0.000000  -0.054764  -0.000000  -0.613978  -0.000000
   17  O  3  X    0.000000   0.000000  -0.000000  -0.000000  -0.286607
   18  O  3  Y    1.025723   0.000000   0.240320  -0.000000  -0.000000
   19  O  3  Z    0.000000  -0.950046  -0.000000  -0.219284  -0.000000
   20  O  3 XX    0.000000   0.152548  -0.000000   0.210121  -0.000000
   21  O  3 YY    0.000000  -0.025351  -0.000000  -0.143583  -0.000000
   22  O  3 ZZ    0.000000  -0.127198  -0.000000  -0.066538  -0.000000
   23  O  3 XY    0.000000   0.000000  -0.000000  -0.000000  -0.000000
   24  O  3 XZ    0.000000   0.000000  -0.000000  -0.000000   1.031079
   25  O  3 YZ    0.023002   0.000000   0.136738  -0.000000  -0.000000

                     21         22         23         24
                    3.3438     3.4429     3.9046     4.0895
                     A2         A1         A1         B2  
    1  H  1  S    0.000000  -0.378142  -1.128714  -1.031756
    2  H  1  S    0.000000  -0.062650  -0.185771  -0.280464
    3  H  1  X    0.366972  -0.000000   0.000000  -0.000000
    4  H  1  Y    0.000000  -0.401782  -0.614043  -0.610344
    5  H  1  Z    0.000000   0.273387  -0.492406  -0.427183
    6  H  2  S    0.000000  -0.378142  -1.128714   1.031756
    7  H  2  S    0.000000  -0.062650  -0.185771   0.280464
    8  H  2  X   -0.366972  -0.000000   0.000000  -0.000000
    9  H  2  Y    0.000000   0.401782   0.614043  -0.610344
   10  H  2  Z    0.000000   0.273387  -0.492406   0.427183
   11  O  3  S    0.000000  -0.090744  -0.148010  -0.000000
   12  O  3  S    0.000000  -0.156241  -0.188028  -0.000000
   13  O  3  S    0.000000   0.725154   2.119807  -0.000000
   14  O  3  X    0.000000  -0.000000   0.000000  -0.000000
   15  O  3  Y    0.000000  -0.000000   0.000000  -0.432093
   16  O  3  Z    0.000000  -0.050043  -0.355672  -0.000000
   17  O  3  X    0.000000  -0.000000   0.000000  -0.000000
   18  O  3  Y    0.000000  -0.000000   0.000000  -1.161294
   19  O  3  Z    0.000000  -0.576038  -0.770668  -0.000000
   20  O  3 XX    0.000000  -0.553496  -0.989055  -0.000000
   21  O  3 YY    0.000000  -0.512555   1.075429  -0.000000
   22  O  3 ZZ    0.000000   1.066051  -0.086374  -0.000000
   23  O  3 XY    1.064950  -0.000000   0.000000  -0.000000
   24  O  3 XZ    0.000000  -0.000000   0.000000  -0.000000
   25  O  3 YZ    0.000000  -0.000000   0.000000   1.300753
 ...... END OF RHF CALCULATION ......
 STEP CPU TIME =     0.11 TOTAL CPU TIME =          0.2 (      0.0 MIN)
 TOTAL WALL CLOCK TIME=          0.2 SECONDS, CPU UTILIZATION IS    90.48%

     ----------------------------------------------------------------
     PROPERTY VALUES FOR THE RHF   SELF-CONSISTENT FIELD WAVEFUNCTION
     ----------------------------------------------------------------

          ---------------------------------------
          MULLIKEN AND LOWDIN POPULATION ANALYSES
          ---------------------------------------

               ----- POPULATIONS IN EACH AO -----
                             MULLIKEN      LOWDIN
              1  H  1  S      0.67091     0.54373
              2  H  1  S      0.07445     0.16650
              3  H  1  X      0.02046     0.05884
              4  H  1  Y      0.03878     0.05905
              5  H  1  Z      0.02394     0.05195
              6  H  2  S      0.67091     0.54373
              7  H  2  S      0.07445     0.16650
              8  H  2  X      0.02046     0.05884
              9  H  2  Y      0.03878     0.05905
             10  H  2  Z      0.02394     0.05195
             11  O  3  S      2.00170     1.90299
             12  O  3  S      0.83008     0.59211
             13  O  3  S      0.83734     0.50299
             14  O  3  X      1.12501     1.08444
             15  O  3  Y      0.75848     0.68390
             16  O  3  Z      0.93123     0.88395
             17  O  3  X      0.83312     0.79764
             18  O  3  Y      0.37586     0.53112
             19  O  3  Z      0.63934     0.70615
             20  O  3 XX      0.00094     0.17491
             21  O  3 YY      0.00093     0.18698
             22  O  3 ZZ      0.00000     0.17663
             23  O  3 XY      0.00096     0.00000
             24  O  3 XZ      0.00794     0.00024
             25  O  3 YZ      0.00000     0.01579

          ----- MULLIKEN ATOMIC OVERLAP POPULATIONS -----
          (OFF-DIAGONAL ELEMENTS NEED TO BE MULTIPLIED BY 2)

             1           2           3

    1    0.4984764
    2   -0.0317520   0.4984764
    3    0.3618185   0.3618185   7.6192772

          TOTAL MULLIKEN AND LOWDIN ATOMIC POPULATIONS
       ATOM         MULL.POP.    CHARGE          LOW.POP.     CHARGE
    1 H             0.828543    0.171457         0.880070    0.119930
    2 H             0.828543    0.171457         0.880070    0.119930
    3 O             8.342914   -0.342914         8.239861   -0.239861

          MULLIKEN SPHERICAL HARMONIC POPULATIONS
       ATOM           S       P       D      F      G      H      I    TOTAL
    1 H             0.75    0.08    0.00   0.00   0.00   0.00   0.00    0.83
    2 H             0.75    0.08    0.00   0.00   0.00   0.00   0.00    0.83
    3 O             3.67    4.66    0.01   0.00   0.00   0.00   0.00    8.34

          -------------------------------
          BOND ORDER AND VALENCE ANALYSIS     BOND ORDER THRESHOLD=0.050
          -------------------------------

                   BOND                       BOND                       BOND
  ATOM PAIR DIST  ORDER      ATOM PAIR DIST  ORDER      ATOM PAIR DIST  ORDER
    1   3  0.976  1.007        2   3  0.976  1.007

                       TOTAL       BONDED        FREE
      ATOM            VALENCE     VALENCE     VALENCE
    1 H                 1.017       1.017       0.000
    2 H                 1.017       1.017       0.000
    3 O                 2.015       2.015      -0.000

          ---------------------
          ELECTROSTATIC MOMENTS
          ---------------------

 POINT   1           X           Y           Z (BOHR)    CHARGE
                -0.000000    0.000000   -0.126499       -0.00 (A.U.)
         DX          DY          DZ         /D/  (DEBYE)
    -0.000000   -0.000000   -1.976520    1.976520
 ...... END OF PROPERTY EVALUATION ......
 STEP CPU TIME =     0.02 TOTAL CPU TIME =          0.2 (      0.0 MIN)
 TOTAL WALL CLOCK TIME=          0.2 SECONDS, CPU UTILIZATION IS    95.45%

     ---------------------------
     COUPLED CLUSTER CALCULATION
     ---------------------------
 CCTYP                        =CR-CCL  
 TOTAL NUMBER OF MOS          =    24
 NUMBER OF OCCUPIED MOS       =     5
 NUMBER OF FROZEN CORE MOS    =     0
 NUMBER OF FROZEN VIRTUAL MOS =     0
 MAXIMUM CC ITERATIONS        =    30
 MAXIMUM DIIS ITERATIONS      =     5
 CONVERGENCE CRITERION FOR CC =     7
 AMPLITUDE ACCURACY THRESHOLD = 0.0E+00

     --------------------------------------------
     PARTIAL TWO ELECTRON INTEGRAL TRANSFORMATION
     --------------------------------------------

 NUMBER OF CORE MOLECULAR ORBITALS     =    0
 NUMBER OF OCCUPIED MOLECULAR ORBITALS =   24
 TOTAL NUMBER OF MOLECULAR ORBITALS    =   24
 TOTAL NUMBER OF ATOMIC ORBITALS       =   25
 THRESHOLD FOR KEEPING TRANSFORMED 2E- INTEGRALS = 1.000E-09
 AO INTEGRALS WILL BE READ IN FROM DISK...

 PLAN A: REQUIREMENTS FOR FULLY IN-MEMORY TRANSFORMATION:
 # OF WORDS AVAILABLE =           9999999999
 # OF WORDS NEEDED    =               258177

 CHOOSING IN MEMORY PARTIAL TRANSFORMATION...
 TOTAL NUMBER OF TRANSFORMED 2E- INTEGRALS KEPT =        12419
 ... END OF INTEGRAL TRANSFORMATION ...
 STEP CPU TIME =     0.01 TOTAL CPU TIME =          0.2 (      0.0 MIN)
 TOTAL WALL CLOCK TIME=          0.2 SECONDS, CPU UTILIZATION IS    91.67%

 CCTYP=CR-CCL   CALCULATION REQUIRES CONVERGED GROUND STATE CCSD AMPLTUDES.

   -----------------------
   COUPLED-CLUSTER PROGRAM
   -----------------------

   -------------------------------------------------------
   P.PIECUCH, S.A.KUCHARSKI, M.WLOCH, K.KOWALSKI, M.MUSIAL
   -------------------------------------------------------

 *****************************************************************
 THE FOLLOWING PAPERS SHOULD BE CITED WHEN USING COUPLED-CLUSTER
 OPTIONS:

 CCTYP = LCCD, CCD, CCSD, CCSD(T)
 P. PIECUCH, S.A. KUCHARSKI, K. KOWALSKI, AND M. MUSIAL,
 COMP. PHYS. COMMUN. 149, 71-96 (2002).

 CCTYP = R-CC, CR-CC, CCSD(TQ), CR-CC(Q)
 P. PIECUCH, S.A. KUCHARSKI, K. KOWALSKI, AND M. MUSIAL,
 COMP. PHYS. COMMUN. 149, 71-96 (2002);
 K. KOWALSKI AND P. PIECUCH, J. CHEM. PHYS. 113, 18-35 (2000);
 K. KOWALSKI AND P. PIECUCH, J. CHEM. PHYS. 113, 5644-5652 (2000).

 CCTYP = EOM-CCSD, CR-EOM
 P. PIECUCH, S.A. KUCHARSKI, K. KOWALSKI, AND M. MUSIAL,
 COMP. PHYS. COMMUN. 149, 71-96 (2002);
 K. KOWALSKI AND P. PIECUCH, J. CHEM. PHYS. 120, 1715-1738 (2004);
 M. WLOCH, J.R. GOUR, K. KOWALSKI, AND P. PIECUCH,
 J. CHEM. PHYS. 122, 214107-1 - 214107-15 (2005).

 CCTYP = CR-CCL
 P. PIECUCH, S.A. KUCHARSKI, K. KOWALSKI, AND M. MUSIAL,
 COMP. PHYS. COMMUN. 149, 71-96 (2002);
 P. PIECUCH AND M. WLOCH, J. CHEM. PHYS. 123,
 224105-1 - 224105-10 (2005).

 CCTYP = CR-EOML
 P. PIECUCH, S.A. KUCHARSKI, K. KOWALSKI, AND M. MUSIAL,
 COMP. PHYS. COMMUN. 149, 71-96 (2002);
 P. PIECUCH, J. R. GOUR, AND M. WLOCH,
 INT. J. QUANTUM CHEM. 109, 3268-3304 (2009);
 K. KOWALSKI AND P. PIECUCH,
 J. CHEM. PHYS. 120, 1715-1738 (2004).

 IN ADDITION, THE USE OF CCPRP=.TRUE. IN $CCINP AND/OR THE USE
 OF CCPRPE=.TRUE. IN $EOMINP SHOULD REFERENCE

 M. WLOCH, J.R. GOUR, K. KOWALSKI, AND P. PIECUCH,
 J. CHEM. PHYS. 122, 214107-1 - 214107-15 (2005).
 *****************************************************************


 THE FOLLOWING CALCULATIONS WILL BE PERFORMED:
                                                     CCSD   

 THE FOLLOWING ENERGY WILL BE CONSIDERED THE HIGHEST LEVEL:    CCSD   
 THE AVAILABLE REPLICATED MEMORY IS  9999999999 WORDS.
 CONVERGENCE THRESHOLD:   1.0E-07
 MAXIMUM NUMBER OF ITERATIONS:   30

 MEMORY TO BE USED IN CC INTEGRAL SORTING IS      167180 WORDS.
 THE MINIMUM MEMORY TO ACCOMPLISH SORTING IS       71154 WORDS.
        12419 NON-ZERO TRANSFORMED 2E- INTEGRALS WERE SORTED INTO FILE 72:
           49 [IJ|KL] TYPE,         420 [AJ|KL] TYPE,
          832 [AB|IJ] TYPE,        1277 [IA|BJ] TYPE,
         4884 [AB|CI] TYPE,        4957 [AB|CD] TYPE.
 TRANSFORMED INTEGRAL FILE  9 WAS READ    3 TIMES.
 ....... DONE WITH CC INTEGRAL PREPARATION .......
 STEP CPU TIME =     0.01 TOTAL CPU TIME =          0.2 (      0.0 MIN)
 TOTAL WALL CLOCK TIME=          0.2 SECONDS, CPU UTILIZATION IS    95.83%

 MEMORY REQUIRED FOR THE CCSD ITERATIONS IS       80925 WORDS.
 ITER:  1   CCSD    CORR. ENERGY:  -0.2095486325   CONV.: -3.6525E-03
 ITER:  2   CCSD    CORR. ENERGY:  -0.2122669091   CONV.: -1.5333E-03
 ITER:  3   CCSD    CORR. ENERGY:  -0.2131446425   CONV.: -2.4302E-04
 ITER:  4   CCSD    CORR. ENERGY:  -0.2132807689   CONV.:  6.0566E-03
 ITER:  5   CCSD    CORR. ENERGY:  -0.2132837019   CONV.:  6.0323E-03
 ITER:  6   CCSD    CORR. ENERGY:  -0.2134076700   CONV.:  5.0866E-03
 ITER:  7   CCSD    CORR. ENERGY:  -0.2137676341   CONV.:  2.3435E-03
 ITER:  8   CCSD    CORR. ENERGY:  -0.2140581133   CONV.: -2.0968E-04
 ITER:  9   CCSD    CORR. ENERGY:  -0.2140763206   CONV.:  1.0966E-05
 ITER: 10   CCSD    CORR. ENERGY:  -0.2140774639   CONV.: -1.9809E-06
 ITER: 11   CCSD    CORR. ENERGY:  -0.2140777630   CONV.:  2.6159E-07
 ITER: 12   CCSD    CORR. ENERGY:  -0.2140778322   CONV.: -1.2763E-07
 ITER: 13   CCSD    CORR. ENERGY:  -0.2140778393   CONV.: -3.4753E-08
 ITER: 14   CCSD    CORR. ENERGY:  -0.2140778389   CONV.: -3.4753E-08

     THE    CCSD     ITERATIONS HAVE CONVERGED

    MBPT(2) CORRELATION ENERGY:  -0.2046900053
    CCSD    CORRELATION ENERGY:  -0.2140778389

 T1 DIAGNOSTIC        =     0.00546405
 NORM OF THE T1 VECTOR=     0.01727884
 NORM OF THE T2 VECTOR=     0.21818176

 THE FIVE LARGEST T1 AMPLITUDES ARE:
 T1 AMPLITUDE IS -0.008241 FOR I=   4 -> A=   6
 T1 AMPLITUDE IS  0.007407 FOR I=   3 -> A=  18
 T1 AMPLITUDE IS -0.005622 FOR I=   3 -> A=   7
 T1 AMPLITUDE IS -0.004978 FOR I=   4 -> A=  19
 T1 AMPLITUDE IS  0.004545 FOR I=   3 -> A=  12

 THE FIVE LARGEST SPIN-UNIQUE T2 AMPLITUDES ARE:
 T2 AMPLITUDE IS -0.051493 FOR I,J=   5   5 -> A,B=  11  11
 T2 AMPLITUDE IS -0.037691 FOR I,J=   4   4 -> A,B=  10  10
 T2 AMPLITUDE IS -0.036123 FOR I,J=   3   3 -> A,B=   8   8
 T2 AMPLITUDE IS -0.030876 FOR I,J=   3   3 -> A,B=   9   9
 T2 AMPLITUDE IS -0.029763 FOR I,J=   3   3 -> A,B=   7   7
 PRINTED T2(I-ALPHA,J-BETA -> A-ALPHA,B-BETA) VALUES
 EQUAL   T2(J-ALPHA,I-BETA -> B-ALPHA,A-BETA) AMPLITUDES.

 ....... DONE WITH CC AMPLITUDE ITERATIONS .......
 STEP CPU TIME =     0.06 TOTAL CPU TIME =          0.3 (      0.0 MIN)
 TOTAL WALL CLOCK TIME=          0.3 SECONDS, CPU UTILIZATION IS    93.55%

                      SUMMARY OF RESULTS

      REFERENCE ENERGY:      -76.0240385115
        MBPT(2) ENERGY:      -76.2287285168   CORR.E=  -0.2046900053
        CCSD    ENERGY:      -76.2381163504   CORR.E=  -0.2140778389

 THE GROUND STATE CCSD HAS CONVERGED, NOW ENTERING THE EOMCCSD PROGRAM TO
 CALCULATE EXCITED STATE(S) AND/OR PROPERTIES AND/OR CR-CC(2,3) ENERGIES...


     --------------------------
     EQUATION-OF-MOTION PROGRAM
     --------------------------

     -------------------------------------------------------
     K.KOWALSKI, M.WLOCH, P.PIECUCH, S.A.KUCHARSKI, M.MUSIAL
     -------------------------------------------------------

 CARRYING OUT CR-CCL   CALCULATION.
 MEMORY REQUIRED FOR EOMCCSD INTERMEDIATES (INTQUA ) IS        50274 WORDS.
 MEMORY REQUIRED FOR EOMCCSD INTERMEDIATES (INTRIPL) IS        84569 WORDS.
 MEMORY REQUIRED FOR EOMCCSD INTERMEDIATES (INTRIP ) IS        52649 WORDS.
 THERE IS ENOUGH MEMORY TO RUN THE MORE EFFICIENT INTRIPL INSTEAD OF INTRIP.
 MEMORY REQUIRED FOR EOMCCSD INTERMEDIATES (INTRIH ) IS        55024 WORDS.
 MEMORY USAGE BY       WDEX:     50274 NEEDED,9999999975 AVAILABLE
 MEMORY USAGE BY   INTQUAT2:     68324 NEEDED,9999999975 AVAILABLE
 MEMORY USAGE BY       BAR3:     24415 NEEDED,9999999975 AVAILABLE
 MEMORY USAGE BY      DENR3:     17881 NEEDED,9999999975 AVAILABLE
 MEMORY USAGE BY     DENCI3:     17471 NEEDED,9999999975 AVAILABLE
 MEMORY USAGE BY      EXTIB:     27170 NEEDED,9999999975 AVAILABLE
 MEMORY USAGE BY   LAMBDIIS:    114257 NEEDED,9999999975 AVAILABLE

 SOLVING FOR THE GROUND STATE'S LAMBDA VECTOR (LEFT EIGENSTATE) USING DIIS

   ITR       CONVERG.
     1    0.006164427
     2    0.001061410
     3    0.000424034
     4    0.000116684
     5    0.000041253
     6    0.000018292
     7    0.000004093
     8    0.000000538
     9    0.000000102
    10    0.000000026
 SYMMETRY OF THE GROUND STATE LEFT EIGENSTATE: A1 
 THE LARGEST LA1 AND LA2 AMPLITUDES FOR THIS ROOT ARE
 LA2=  -0.0512793517 FOR I,J -> A,B =    5    5   11   11
 MEMORY USAGE BY      DAVPR:     77711 NEEDED,9999999975 AVAILABLE
 MEMORY USAGE BY D.M. CALC.:     49742 NEEDED,9999999975 AVAILABLE


                    GROUND STATE CCSD PROPERTIES
                    ----------------------------

                           X-COMPONENT     Y-COMPONENT     Z-COMPONENT
                           -----------     -----------     -----------
 ---------------------------------------------------------------------
 CCSD     DIPOLE  MOM.    -0.000000000     0.000000000    -0.734406873
 ---------------------------------------------------------------------
 THE LEFT/RIGHT NATURAL ORBITALS HAVE OCCUPATION NUMBERS
 1.9999 1.9843 1.9637 1.9663 1.9729 0.0260 0.0269 0.0058 0.0001 0.0118
 0.0171 0.0000 0.0051 0.0057 0.0005 0.0005 0.0044 0.0011 0.0006 0.0043
 0.0007 0.0005 0.0012 0.0007
 THERE ARE     0.00 UNCORRELATED E- IN FILLED ORBITALS
 THERE ARE     9.89 REAL E- IN PRINCIPAL NATURAL ORBITALS (  0.0 IMAG. E-)
 THERE ARE     0.11 REAL E- IN SECONDARY NATURAL ORBITALS (  0.0 IMAG. E-)
 SAVING DENSITY MATRIX FOR STATE IROOT=  1  0 FOR PROPERTIES.

          RIGHT EOM-CC NATURAL ORBITALS
          -----------------------------
 NOTE: LEFT NATURAL ORBITALS ARE NOT IDENTICAL TO THE RIGHT,
       BUT ARE NOT PRINTED OUT.

                      1          2          3          4          5
                    1.9999     1.9843     1.9729     1.9663     1.9637
                     A1         A1         B1         A1         B2  
    1  H  1  S   -0.001568   0.110861  -0.000000  -0.248300  -0.329578
    2  H  1  S    0.000631  -0.001588  -0.000000  -0.050444  -0.096753
    3  H  1  X    0.000000   0.000000   0.032518   0.000000  -0.000000
    4  H  1  Y   -0.000927   0.025154  -0.000000  -0.036916  -0.021531
    5  H  1  Z   -0.000830   0.020168  -0.000000   0.007085  -0.028590
    6  H  2  S   -0.001568   0.110861   0.000000  -0.248300   0.329578
    7  H  2  S    0.000631  -0.001588   0.000000  -0.050444   0.096753
    8  H  2  X    0.000000   0.000000   0.032518   0.000000  -0.000000
    9  H  2  Y    0.000927  -0.025154  -0.000000   0.036916  -0.021531
   10  H  2  Z   -0.000830   0.020168   0.000000   0.007085   0.028590
   11  O  3  S    1.001015   0.010707   0.000000   0.000874   0.000000
   12  O  3  S   -0.006866   0.469007   0.000000  -0.013477  -0.000000
   13  O  3  S   -0.012133   0.471750   0.000000   0.190849   0.000000
   14  O  3  X    0.000000   0.000000   0.628140   0.000000  -0.000000
   15  O  3  Y   -0.000000   0.000000   0.000000  -0.000000   0.492252
   16  O  3  Z   -0.004932   0.106578   0.000000   0.547002   0.000000
   17  O  3  X    0.000000   0.000000   0.498625   0.000000  -0.000000
   18  O  3  Y   -0.000000   0.000000   0.000000  -0.000000   0.204592
   19  O  3  Z   -0.002845   0.136322   0.000000   0.352841   0.000000
   20  O  3 XX   -0.000167   0.000375   0.000000   0.012691   0.000000
   21  O  3 YY    0.000060   0.004648   0.000000   0.003869   0.000000
   22  O  3 ZZ    0.000107  -0.005023  -0.000000  -0.016561  -0.000000
   23  O  3 XY    0.000000   0.000000   0.000000  -0.000000   0.000000
   24  O  3 XZ   -0.000000  -0.000000  -0.017664  -0.000000   0.000000
   25  O  3 YZ    0.000000  -0.000000  -0.000000   0.000000  -0.024163

                      6          7          8          9         10
                    0.0269     0.0260     0.0171     0.0118     0.0058
                     B2         A1         B1         A1         B2  
    1  H  1  S    0.562286   0.543142   0.000000  -0.228305   0.406392
    2  H  1  S    0.174763   0.106047  -0.000000   0.052481  -0.184893
    3  H  1  X   -0.000000  -0.000000  -0.079386  -0.000000  -0.000000
    4  H  1  Y    0.028658   0.034847   0.000000   0.003732   0.134007
    5  H  1  Z    0.000723  -0.003113   0.000000  -0.087405  -0.027899
    6  H  2  S   -0.562286   0.543142   0.000000  -0.228305  -0.406392
    7  H  2  S   -0.174763   0.106047  -0.000000   0.052481   0.184893
    8  H  2  X   -0.000000  -0.000000  -0.079386  -0.000000   0.000000
    9  H  2  Y    0.028658  -0.034847  -0.000000  -0.003732   0.134007
   10  H  2  Z   -0.000723  -0.003113   0.000000  -0.087405   0.027899
   11  O  3  S    0.000000  -0.106189  -0.000000   0.429709   0.000000
   12  O  3  S    0.000000  -0.423050  -0.000000   1.114728   0.000000
   13  O  3  S   -0.000000  -0.304967  -0.000000  -0.851440  -0.000000
   14  O  3  X   -0.000000  -0.000000   0.965112  -0.000000  -0.000000
   15  O  3  Y    0.876252   0.000000   0.000000   0.000000  -0.303136
   16  O  3  Z    0.000000   0.788337   0.000000   0.535179  -0.000000
   17  O  3  X    0.000000  -0.000000  -0.960103  -0.000000  -0.000000
   18  O  3  Y    0.053589  -0.000000   0.000000   0.000000   0.792596
   19  O  3  Z   -0.000000  -0.174317  -0.000000  -0.768375   0.000000
   20  O  3 XX    0.000000  -0.051539   0.000000   0.074065  -0.000000
   21  O  3 YY   -0.000000   0.048033  -0.000000  -0.128658   0.000000
   22  O  3 ZZ    0.000000   0.003506   0.000000   0.054593  -0.000000
   23  O  3 XY   -0.000000   0.000000  -0.000000  -0.000000   0.000000
   24  O  3 XZ    0.000000   0.000000   0.033488   0.000000  -0.000000
   25  O  3 YZ    0.051950   0.000000  -0.000000  -0.000000   0.614049

                     11         12         13         14         15
                    0.0057     0.0051     0.0044     0.0043     0.0012
                     A1         A2         A1         B1         A1  
    1  H  1  S   -0.445246  -0.000000   0.213595   0.000000  -1.211757
    2  H  1  S    0.079475   0.000000  -0.036957  -0.000000   0.150825
    3  H  1  X    0.000000  -0.275165  -0.000000  -0.185171   0.000000
    4  H  1  Y    0.020436   0.000000   0.166522   0.000000  -0.084953
    5  H  1  Z   -0.215084  -0.000000  -0.109071   0.000000  -0.090280
    6  H  2  S   -0.445246   0.000000   0.213595   0.000000  -1.211757
    7  H  2  S    0.079475  -0.000000  -0.036957  -0.000000   0.150825
    8  H  2  X   -0.000000   0.275165   0.000000  -0.185171   0.000000
    9  H  2  Y   -0.020436   0.000000  -0.166522  -0.000000   0.084953
   10  H  2  Z   -0.215084   0.000000  -0.109071   0.000000  -0.090280
   11  O  3  S   -0.326892   0.000000   0.083605  -0.000000  -0.366082
   12  O  3  S   -0.737673   0.000000   0.175588  -0.000000  -0.721116
   13  O  3  S    1.163199  -0.000000  -0.403680  -0.000000   1.752539
   14  O  3  X    0.000000   0.000000  -0.000000  -0.058310   0.000000
   15  O  3  Y    0.000000   0.000000   0.000000  -0.000000   0.000000
   16  O  3  Z    0.025046  -0.000000  -0.049781   0.000000   0.132544
   17  O  3  X   -0.000000  -0.000000  -0.000000   0.244828  -0.000000
   18  O  3  Y   -0.000000  -0.000000  -0.000000   0.000000  -0.000000
   19  O  3  Z   -0.247859   0.000000   0.384437   0.000000  -1.010715
   20  O  3 XX    0.305886  -0.000000  -0.735455   0.000000  -0.634251
   21  O  3 YY   -0.591240   0.000000  -0.037007  -0.000000   0.779851
   22  O  3 ZZ    0.285355  -0.000000   0.772462   0.000000  -0.145600
   23  O  3 XY   -0.000000   0.795767   0.000000   0.000000  -0.000000
   24  O  3 XZ   -0.000000  -0.000000  -0.000000   0.907665   0.000000
   25  O  3 YZ   -0.000000  -0.000000  -0.000000  -0.000000   0.000000

                     16         17         18         19         20
                    0.0011     0.0007     0.0007     0.0006     0.0005
                     B2         A2         B2         A1         B1  
    1  H  1  S    0.735997   0.000000  -1.015489   0.769203   0.000000
    2  H  1  S    0.024057  -0.000000   0.787866  -0.417089  -0.000000
    3  H  1  X    0.000000   0.722168   0.000000   0.000000   0.831262
    4  H  1  Y    0.017421  -0.000000  -0.383659   0.792534   0.000000
    5  H  1  Z   -0.288452   0.000000  -0.595682   0.306481  -0.000000
    6  H  2  S   -0.735997  -0.000000   1.015489   0.769203   0.000000
    7  H  2  S   -0.024057   0.000000  -0.787866  -0.417089  -0.000000
    8  H  2  X   -0.000000  -0.722168  -0.000000   0.000000   0.831262
    9  H  2  Y    0.017421   0.000000  -0.383659  -0.792534  -0.000000
   10  H  2  Z    0.288452  -0.000000   0.595682   0.306481   0.000000
   11  O  3  S   -0.000000   0.000000  -0.000000  -0.271037  -0.000000
   12  O  3  S   -0.000000   0.000000  -0.000000  -0.659418  -0.000000
   13  O  3  S    0.000000   0.000000  -0.000000  -0.321654  -0.000000
   14  O  3  X    0.000000   0.000000  -0.000000   0.000000   0.069493
   15  O  3  Y   -0.428945   0.000000  -0.560854   0.000000   0.000000
   16  O  3  Z    0.000000  -0.000000   0.000000   0.517622   0.000000
   17  O  3  X   -0.000000  -0.000000   0.000000  -0.000000  -0.736672
   18  O  3  Y    1.078890   0.000000  -0.496157  -0.000000  -0.000000
   19  O  3  Z   -0.000000   0.000000  -0.000000   0.251500   0.000000
   20  O  3 XX    0.000000  -0.000000   0.000000   0.389789   0.000000
   21  O  3 YY   -0.000000   0.000000  -0.000000  -0.216684   0.000000
   22  O  3 ZZ    0.000000  -0.000000   0.000000  -0.173105  -0.000000
   23  O  3 XY    0.000000   0.719494   0.000000   0.000000  -0.000000
   24  O  3 XZ    0.000000   0.000000  -0.000000   0.000000   0.513609
   25  O  3 YZ   -0.742253  -0.000000   0.661253  -0.000000  -0.000000

                     21         22         23         24
                    0.0005     0.0005     0.0001     0.0000
                     B2         A1         A1         B2  
    1  H  1  S    0.238372   0.305659  -0.666853   0.528824
    2  H  1  S    0.244634   0.043929  -1.028296   1.567921
    3  H  1  X    0.000000   0.000000   0.000000   0.000000
    4  H  1  Y   -0.664041   0.316649  -0.842471   0.749785
    5  H  1  Z    0.412464  -0.732882  -0.486317   0.633745
    6  H  2  S   -0.238372   0.305659  -0.666853  -0.528824
    7  H  2  S   -0.244634   0.043929  -1.028296  -1.567921
    8  H  2  X    0.000000   0.000000   0.000000  -0.000000
    9  H  2  Y   -0.664041  -0.316649   0.842471   0.749785
   10  H  2  Z   -0.412464  -0.732882  -0.486317  -0.633745
   11  O  3  S    0.000000   0.184461  -0.344703  -0.000000
   12  O  3  S    0.000000   0.379422  -0.596794  -0.000000
   13  O  3  S   -0.000000  -0.556430   3.233874   0.000000
   14  O  3  X    0.000000   0.000000   0.000000   0.000000
   15  O  3  Y   -0.407465   0.000000  -0.000000   0.233131
   16  O  3  Z    0.000000  -0.190964  -0.212773   0.000000
   17  O  3  X   -0.000000  -0.000000  -0.000000   0.000000
   18  O  3  Y    0.983233  -0.000000  -0.000000   1.786235
   19  O  3  Z    0.000000   0.885981  -1.098959  -0.000000
   20  O  3 XX    0.000000   0.111069  -0.388278  -0.000000
   21  O  3 YY    0.000000   0.554847   0.348324   0.000000
   22  O  3 ZZ   -0.000000  -0.665916   0.039953   0.000000
   23  O  3 XY   -0.000000  -0.000000  -0.000000   0.000000
   24  O  3 XZ    0.000000   0.000000   0.000000  -0.000000
   25  O  3 YZ    0.179388  -0.000000   0.000000  -0.566772
 ... END OF RIGHT EOM NATURAL ORBITALS ...
 ..... DONE WITH EOM-CCSD .....
 STEP CPU TIME =     0.06 TOTAL CPU TIME =          0.3 (      0.0 MIN)
 TOTAL WALL CLOCK TIME=          0.4 SECONDS, CPU UTILIZATION IS    97.22%

 EOM-CCSD HAS FINISHED, NOW ENTERING THE MMCC23 PROGRAM
 TO COMPUTE CR-EOMCCSD(T) AND/OR CR-CC(2,3) TRIPLES CORRECTIONS

 ------------------     -------------------
 CR-CC(2,3) PROGRAM     M. WLOCH, P.PIECUCH
 ------------------     -------------------

 A TOTAL OF  1 STATES WILL BE TRIPLES CORRECTED

 BEGINNING TRIPLES CORRECTION FOR STATE  0
 MEMORY REQUIRED FOR   XINTQUA=       96064
 MEMORY REQUIRED FOR  XINTRIPL=       93784
 MEMORY REQUIRED FOR   XINTRIH=       66519
 MEMORY REQUIRED FOR   DEN12CR=       18240 MTRIP= 1
 MEMORY REQUIRED FOR XT3WT2NNN=      181638 MTRIP= 1
 LAMBDA CORRECTION FOR ROOT NO.                    0
 THE LARGEST L1 AND L2 AMPLITUDES FOR THIS ROOT ARE

 GROUND STATE CCSD TOTAL ENERGY=                                -76.2381163504

 MAIN RESULTS: CR-CC(2,3) = CR-CC(2,3),D = CR-CCSD(T)_L CALCULATIONS
 [SEE P. PIECUCH AND M. WLOCH, J. CHEM. PHYS. 123, 224105 (2005);
 P. PIECUCH, M. WLOCH, J.R. GOUR, AND A. KINAL, CHEM. PHYS. LETT.
 418, 463 (2005)]

 GROUND STATE CR-CC(2,3),A CORRECTION -0.002838, TOTAL E=      -76.2409544469
 GROUND STATE CR-CC(2,3),B CORRECTION -0.002744, TOTAL E=      -76.2408598769
 GROUND STATE CR-CC(2,3),C CORRECTION -0.003407, TOTAL E=      -76.2415238409
 GROUND STATE CR-CC(2,3),D CORRECTION -0.003399, TOTAL E=      -76.2415158395

 CR-CC(2,3),A ENERGY IS IDENTICAL TO THE CCSD(2)_T ENERGY.
 CR-CC(2,3),D ENERGY IS IDENTICAL TO COMPLETE CR-CC(2,3) ENERGY (CR-CCSD(T)_L)

 ADDITIONAL RESULTS: GROUND-STATE CR-EOMCCSD(T) CALCULATIONS
 [SEE K. KOWALSKI AND P. PIECUCH, J. CHEM. PHYS. 120, 1715 (2004)]

 GROUND STATE CR-CCSD(T)IA  CORRECTION -0.002486, TOTAL E=      -76.2406027453
 GROUND STATE CR-CCSD(T)IB  CORRECTION -0.002399, TOTAL E=      -76.2405151486
 GROUND STATE CR-CCSD(T)IC  CORRECTION -0.003009, TOTAL E=      -76.2411257260
 GROUND STATE CR-CCSD(T)ID  CORRECTION -0.003002, TOTAL E=      -76.2411182737
 GROUND STATE CR-CCSD(T)IIA CORRECTION -0.002613, TOTAL E=      -76.2407296982
 GROUND STATE CR-CCSD(T)IIB CORRECTION -0.002526, TOTAL E=      -76.2406420993
 GROUND STATE CR-CCSD(T)IIC CORRECTION -0.003136, TOTAL E=      -76.2412526920
 GROUND STATE CR-CCSD(T)IID CORRECTION -0.003129, TOTAL E=      -76.2412452395

              SUMMARY OF CR-CC(2,3) OR CR-CCSD(T)_L CALCULATIONS

 THE MOST ACCURATE ENERGETICS IS PROVIDED BY CR-CC(2,3) = CR-CC(2,3),D

 CCSD                       ENERGY:      -76.2381163504   CORR.E=  -0.2140778389
 CR-CC(2,3),A OR CCSD(2)_T  ENERGY:      -76.2409544469   CORR.E=  -0.2169159354
 CR-CC(2,3) OR CR-CCSD(T)_L ENERGY:      -76.2415158395   CORR.E=  -0.2174773280
 CPU TIME FOR TRIPLES CORRECTION FOR THIS STATE=       0.0

 .... DONE WITH MMCC(2,3) TRIPLES CORRECTIONS ....
 STEP CPU TIME =     0.04 TOTAL CPU TIME =          0.4 (      0.0 MIN)
 TOTAL WALL CLOCK TIME=          0.4 SECONDS, CPU UTILIZATION IS    95.12%

     --------------------------------------
     CCSD PROPERTIES...FOR THE GROUND STATE
      USING THE EXPECTATION VALUE DENSITY
     --------------------------------------

          ---------------------------------------
          MULLIKEN AND LOWDIN POPULATION ANALYSES
          ---------------------------------------

               ----- POPULATIONS IN EACH AO -----
                             MULLIKEN      LOWDIN
              1  H  1  S      0.67935     0.54736
              2  H  1  S      0.08455     0.17139
              3  H  1  X      0.02355     0.06151
              4  H  1  Y      0.03574     0.05755
              5  H  1  Z      0.02491     0.05367
              6  H  2  S      0.67935     0.54736
              7  H  2  S      0.08455     0.17139
              8  H  2  X      0.02355     0.06151
              9  H  2  Y      0.03574     0.05755
             10  H  2  Z      0.02491     0.05367
             11  O  3  S      2.00195     1.90334
             12  O  3  S      0.83509     0.59511
             13  O  3  S      0.82137     0.49937
             14  O  3  X      1.11207     1.07280
             15  O  3  Y      0.77142     0.69271
             16  O  3  Z      0.92874     0.87991
             17  O  3  X      0.83262     0.79679
             18  O  3  Y      0.34946     0.51352
             19  O  3  Z      0.62155     0.69363
             20  O  3 XX      0.00469     0.17610
             21  O  3 YY      0.00478     0.18837
             22  O  3 ZZ      0.00400     0.17737
             23  O  3 XY      0.00488     0.00393
             24  O  3 XZ      0.01119     0.00412
             25  O  3 YZ      0.00000     0.01995

          ----- MULLIKEN ATOMIC OVERLAP POPULATIONS -----
          (OFF-DIAGONAL ELEMENTS NEED TO BE MULTIPLIED BY 2)

             1           2           3

    1    0.5411043
    2   -0.0331647   0.5411043
    3    0.3401631   0.3401631   7.6234682

          TOTAL MULLIKEN AND LOWDIN ATOMIC POPULATIONS
       ATOM         MULL.POP.    CHARGE          LOW.POP.     CHARGE
    1 H             0.848103    0.151897         0.891489    0.108511
    2 H             0.848103    0.151897         0.891489    0.108511
    3 O             8.303794   -0.303794         8.217022   -0.217022

          MULLIKEN SPHERICAL HARMONIC POPULATIONS
       ATOM           S       P       D      F      G      H      I    TOTAL
    1 H             0.76    0.08    0.00   0.00   0.00   0.00   0.00    0.85
    2 H             0.76    0.08    0.00   0.00   0.00   0.00   0.00    0.85
    3 O             3.66    4.62    0.03   0.00   0.00   0.00   0.00    8.30

          -------------------------------
          BOND ORDER AND VALENCE ANALYSIS     BOND ORDER THRESHOLD=0.050
          -------------------------------

                   BOND                       BOND                       BOND
  ATOM PAIR DIST  ORDER      ATOM PAIR DIST  ORDER      ATOM PAIR DIST  ORDER
    1   3  0.976  0.968        2   3  0.976  0.968

                       TOTAL       BONDED        FREE
      ATOM            VALENCE     VALENCE     VALENCE
    1 H                 1.038       0.977       0.061
    2 H                 1.038       0.977       0.061
    3 O                 2.261       1.937       0.324

          ---------------------
          ELECTROSTATIC MOMENTS
          ---------------------

 POINT   1           X           Y           Z (BOHR)    CHARGE
                -0.000000    0.000000   -0.126499        0.00 (A.U.)
         DX          DY          DZ         /D/  (DEBYE)
    -0.000000   -0.000000   -1.866690    1.866690
 ...... END OF PROPERTY EVALUATION ......
 STEP CPU TIME =     0.01 TOTAL CPU TIME =          0.4 (      0.0 MIN)
 TOTAL WALL CLOCK TIME=          0.4 SECONDS, CPU UTILIZATION IS    95.24%
               580000  WORDS OF DYNAMIC MEMORY USED
 EXECUTION OF GAMESS TERMINATED NORMALLY Mon May 18 19:10:22 2020
 DDI: 263640 bytes (0.3 MB / 0 MWords) used by master data server.

 ----------------------------------------
 CPU timing information for all processes
 ========================================
 0: 0.178 + 0.232 = 0.411
 ----------------------------------------
 ddikick.x: exited gracefully.
----- accounting info -----
Files used on the master node linked.cem.msu.edu were:
-rw-r--r-- 1 gururang piecuch      331 May 18 19:10 /scratch/gururang/h2o-ccsd.F05
-rw-r--r-- 1 gururang piecuch   180016 May 18 19:10 /scratch/gururang/h2o-ccsd.F08
-rw-r--r-- 1 gururang piecuch   182424 May 18 19:10 /scratch/gururang/h2o-ccsd.F09
-rw-r--r-- 1 gururang piecuch 54067200 May 18 19:10 /scratch/gururang/h2o-ccsd.F10
-rw-r--r-- 1 gururang piecuch   388608 May 18 19:10 /scratch/gururang/h2o-ccsd.F70
-rw-r--r-- 1 gururang piecuch   729600 May 18 19:10 /scratch/gururang/h2o-ccsd.F71
-rw-r--r-- 1 gururang piecuch  3621552 May 18 19:10 /scratch/gururang/h2o-ccsd.F72
-rw-r--r-- 1 gururang piecuch     5320 May 18 19:10 /scratch/gururang/h2o-ccsd.F73
-rw-r--r-- 1 gururang piecuch  1010800 May 18 19:10 /scratch/gururang/h2o-ccsd.F74
-rw-r--r-- 1 gururang piecuch        0 May 18 19:10 /scratch/gururang/h2o-ccsd.F75
-rw-r--r-- 1 gururang piecuch    95000 May 18 19:10 /scratch/gururang/h2o-ccsd.F76
-rw-r--r-- 1 gururang piecuch  1371800 May 18 19:10 /scratch/gururang/h2o-ccsd.F77
-rw-r--r-- 1 gururang piecuch        0 May 18 19:10 /scratch/gururang/h2o-ccsd.F80
-rw-r--r-- 1 gururang piecuch        0 May 18 19:10 /scratch/gururang/h2o-ccsd.F81
-rw-r--r-- 1 gururang piecuch    72200 May 18 19:10 /scratch/gururang/h2o-ccsd.F82
-rw-r--r-- 1 gururang piecuch        0 May 18 19:10 /scratch/gururang/h2o-ccsd.F83
-rw-r--r-- 1 gururang piecuch        0 May 18 19:10 /scratch/gururang/h2o-ccsd.F84
-rw-r--r-- 1 gururang piecuch    15000 May 18 19:10 /scratch/gururang/h2o-ccsd.F85
-rw-r--r-- 1 gururang piecuch  1042568 May 18 19:10 /scratch/gururang/h2o-ccsd.F86
-rw-r--r-- 1 gururang piecuch        0 May 18 19:10 /scratch/gururang/h2o-ccsd.F87
-rw-r--r-- 1 gururang piecuch        0 May 18 19:10 /scratch/gururang/h2o-ccsd.F88
-rw-r--r-- 1 gururang piecuch    72960 May 18 19:10 /scratch/gururang/h2o-ccsd.F89
-rw-r--r-- 1 gururang piecuch    46208 May 18 19:10 /scratch/gururang/h2o-ccsd.F90
-rw-r--r-- 1 gururang piecuch    57760 May 18 19:10 /scratch/gururang/h2o-ccsd.F91
-rw-r--r-- 1 gururang piecuch        0 May 18 19:10 /scratch/gururang/h2o-ccsd.F92
-rw-r--r-- 1 gururang piecuch        0 May 18 19:10 /scratch/gururang/h2o-ccsd.F93
-rw-r--r-- 1 gururang piecuch        0 May 18 19:10 /scratch/gururang/h2o-ccsd.F94
-rw-r--r-- 1 gururang piecuch     3800 May 18 19:10 /scratch/gururang/h2o-ccsd.F95
-rw-r--r-- 1 gururang piecuch   361000 May 18 19:10 /scratch/gururang/h2o-ccsd.F96
-rw-r--r-- 1 gururang piecuch   145920 May 18 19:10 /scratch/gururang/h2o-ccsd.F97
-rw-r--r-- 1 gururang piecuch     3800 May 18 19:10 /scratch/gururang/h2o-ccsd.F98
-rw-r--r-- 1 gururang piecuch   361000 May 18 19:10 /scratch/gururang/h2o-ccsd.F99
Mon May 18 19:10:25 EDT 2020
0.079u 0.075s 0:03.58 3.9%	0+0k 0+8io 0pf+0w
