1 : fcidump-h2o-3.6.inp
----- GAMESS execution script 'rungms' -----
This job is running on host coupled.cem.msu.edu
under operating system Linux at Wed Nov 8 22:07:25 EST 2023
Available scratch disk space (Kbyte units) at beginning of the job is
Filesystem      1K-blocks    Used  Available Use% Mounted on
/dev/sde2      2619147912 8406844 2477689268   1% /scratch
GAMESS temporary binary files will be written to /scratch/gururang
GAMESS supplementary output files will be written to /scratch/gururang/h2o_pec/R-3.6
Copying input file /scratch/gururang/h2o_pec/R-3.6/fcidump-h2o-3.6.inp to your run's scratch directory...

 Distributed Data Interface kickoff program.
 Initiating 1 compute processes on 1 nodes to run the following command:
 /home2/gururang/gamess_R1_2023/gamess/gamess.00.x fcidump-h2o-3.6 

          *******************************************************
          *                                                     *
          *          GAMESS VERSION = 30 JUN 2023 (R1)          *
          *                                                     *
          *              doi.org/10.1063/5.0005188              *
          *                                                     *
          **************** 64 BIT LINUX VERSION *****************

  GAMESS HAS BEEN MADE POSSIBLE WITH IMPORTANT CONTRIBUTIONS FROM
  THE FOLLOWING INDIVIDUALS (IN ALPHABETICAL ORDER):

     IVANA ADAMOVIC, CHRISTINE AIKENS, TOMOKO AKAMA,
     MELISA ALKAN, YURI ALEXEEV, YURIKO AOKI, POOJA ARORA,
     TOSHIO ASADA, ANDREY ASADCHEV, KIM K. BALDRIDGE,
     PRADIPTA BANDYOPADHYAY, TAYLOR A. BARNES, MARIA BARYSZ,
     ROB BELL, JONATHAN BENTZ, COLLEEN BERTONI,
     JERRY A. BOATZ, BRETT BODE, KURT BRORSEN, KURT R. BRORSEN,
     LAIMUTIS BYTAUTAS, CALEB CARLIN, LAURA CARRINGTON,
     GALINA CHABAN, BENOIT CHAMPAGNE, WEI CHEN, MAHITO CHIBA,
     DAN CHIPMAN, CHEOL HO CHOI, TANNER CULPITT,
     DIPAYAN DATTA, PAUL DAY, ALBERT DEFUSCO,
     NUWAN DESILVA, J. EMILIANO DEUSTUA,
     TIM DUDLEY, MICHEL DUPUIS, STEVEN T. ELBERT,
     DMITRI FEDOROV, KATHERINE FERRERAS, MICHAEL FILATOV,
     ALEX FINDLATER,GRAHAM FLETCHER, MARK FREITAG,
     CHRISTIAN FRIEDL, DAVID GARMER, 
     IGOR S. GERASIMOV, KURT GLAESEMANN,
     MARK S. GORDON, JEFFREY R. GOUR, FENG LONG GU,
     EMILIE B. GUIDEZ, ANASTASIA GUNINA, SHARON HAMMES-SCHIFFER,
     MASATAKE HARUTA, KIMIHIKO HIRAO, YASUHIRO IKABATA,
     TZVETELIN IORDANOV, STEPHAN IRLE, KAZUYA ISHIMURA,
     JOE IVANIC, FRANK JENSEN, JAN H. JENSEN, VISVALDAS KAIRYS,
     MUNEAKI KAMIYA, MICHIO KATOUDA, NAOAKI KAWAKAMI, DAN KEMP,
     BERNARD KIRTMAN, KAZUO KITAURA, MARIUSZ KLOBUKOWSKI,
     MASATO KOBAYASHI, KONSTANTIN KOMAROV, PRAKASHAN KORAMBATH,
     JACEK KORCHOWIEC, SHIRO KOSEKI, KAROL KOWALSKI,
     JIMMY KROMANN, STANISLAW A. KUCHARSKI, HENRY KURTZ,
     SAROM SOK LEANG, SEUNGHOON LEE, HUI LI, SHUHUA LI, WEI LI,
     JESSE J. LUTZ, ALEKSANDR O. LYKHIN,
     ILIAS MAGOULAS, MARCIN MAKOWSKI,
     JOANI MATO, NIKITA MATSUNAGA, BENEDETTA MENNUCCI,
     GRANT MERRILL, NORIYUKI MINEZAWA, VLADIMIR MIRONOV,
     EISAKU MIYOSHI, JOHN A. MONTGOMERY JR., HIROTOSHI MORI,
     JONATHAN MULLIN, MONIKA MUSIAL, SHIGERU NAGASE,
     TAKESHI NAGATA, HIROMI NAKAI, TAKAHITO NAKAJIMA,
     YUYA NAKAJIMA, HARUYUKI NAKANO, HIROYA NAKATA, SEAN NEDD,
     HEATHER NETZLOFF, KIET A. NGUYEN, YOSHIO NISHIMOTO,
     BOSILJKA NJEGIC, RYAN OLSON, MIKE PAK, ROBERTO PEVERATI,
     BUU PHAM, PIOTR PIECUCH, ANNA POMOGAEVA, DAVID POOLE,
     SPENCER PRUITT, OLIVIER QUINET, LUKE ROSKOP,
     KLAUS RUEDENBERG, ANDREW SAND, TOSAPORN SATTASATHUCHANA,
     NOZOMI SAWADA, MICHAEL W. SCHMIDT, PATRICK E. SCHNEIDER,
     JUNJI SEINO, PRACHI SHARMA, JUN SHEN, JIM SHOEMAKER,
     YINAN SHU, DEJUN SI, JONATHAN SKONE, LYUDMILA SLIPCHENKO,
     TONY SMITH, JIE SONG, MARK SPACKMAN, CASPER STEINMANN,
     WALT STEVENS, PEIFENG SU, SHUJUN SU, CHET SWALINA,
     CHINAMI TAKASHIMA, TETSUYA TAKETSUGU, ZHEN TAO,
     NANDUN THELLAMUREGE, SEIKEN TOKURA, JACOPO TOMASI,
     TSUGUKI TOUMA, TAKAO TSUNEDA, HIROAKI UMEDA,
     JORGE LUIS GALVEZ VALLEJO, YALI WANG, SIMON WEBB,
     AARON WEST, THERESA L. WINDUS, MARTA WLOCH,
     PENG XU, KIYOSHI YAGI, SUSUMU YANAGISAWA, YANG YANG,
     SOOHAENG YOO, TAKESHI YOSHIKAWA, FEDERICO ZAHARIEV,
     TOBY ZENG

  WHO ARE SUPPORTED BY THEIR INSTITUTION/UNIVERSITY/COMPANY/GROUP
  (IN ALPHABETICAL ORDER):

     EP ANALYTICS,
     FACULTES UNIVERSITAIRES NOTRE-DAME DE LA PAIX,
     INSTITUTE FOR MOLECULAR SCIENCE, IOWA STATE UNIVERSITY,
     JACKSON STATE UNIVERSITY, JOHANNES KEPLER UNIVERSITY LINZ,
     KYUNGPOOK NATIONAL UNIVERSITY
     KYUSHU UNIVERSITY, MICHIGAN STATE UNIVERSITY,
     MIE UNIVERSITY, THE MOLECULAR SCIENCES SOFTWARE INSTITUTE,
     MOSCOW STATE UNIVERSITY,
     N. COPERNICUS UNIVERSITY, NAGOYA UNIVERSITY,
     NANJING UNIVERSITY, NAT. INST. OF ADVANCED INDUSTRIAL
     SCIENCE AND TECHNOLOGY, NATIONAL INST. OF STANDARDS AND
     TECHNOLOGY, NESMEYANOV INSTITUTE OF ORGANOELEMENT COMPOUNDS
     OF RUSSIAN ACADEMY OF SCIENCES, OSAKA PREFECTURE UNIVERSITY,
     PENNSYLVANIA STATE UNIVERSITY, TOKYO INSTITUTE OF TECHNOLOGY,
     UNIVERSITY OF AARHUS, UNIVERSITY OF ALBERTA,
     UNIVERSITY OF CALIFORNIA AT SANTA BARBARA,
     UNIVERSITY OF COPENHAGEN, UNIVERSITY OF IOWA,
     UNIVERSITY OF MEMPHIS, UNIVERSITY OF MINNESOTA,
     UNIVERSITY OF NEBRASKA, UNIVERSITY OF NEW ENGLAND,
     UNIVERSITY OF NOTRE DAME, UNIVERSITY OF PISA,
     UNIVERSITY OF SILESIA, UNIVERSITY OF TOKYO,
     UNIVERSITY OF ZURICH, WASEDA UNIVERSITY,
     YALE UNIVERSITY

  GAMESS SOFTWARE MANAGEMENT TEAM FOR THIS RELEASE:
     MARK S. GORDON (TEAM LEAD),
     BRETT BODE (SENIOR ADVISOR),
     GIUSEPPE BARCA,
     COLLEEN BERTONI,
     KRISTOPHER KEIPERT (ADVISOR),
     SAROM S. LEANG (DEVELOPMENT LEAD),
     BUU PHAM,
     JACKSON HAYES (WEBSITE ADMINISTRATOR),
     PENG XU

 EXECUTION OF GAMESS BEGUN 22:07:25 08-NOV-2023    

            ECHO OF THE FIRST FEW INPUT CARDS -
 INPUT CARD> $contrl scftyp=rhf cctyp=ccsd                                                  
 INPUT CARD>         runtyp=fcidump coord=zmt                                               
 INPUT CARD>         units=bohr $end                                                        
 INPUT CARD> $system mwords=25 $end                                                         
 INPUT CARD> $basis extfil=.true. gbasis=paldusTZ $end                                      
 INPUT CARD> $guess  guess=huckel $end                                                      
 INPUT CARD> $scf    conv=1d-10 $end                                                        
 INPUT CARD> $ccinp  iconv=8 nfzv=0 ncore=1 maxcc=80 $end                                   
 INPUT CARD> $data                                                                          
 INPUT CARD>H2O, R(OH) = 3.6 au in Paldus' TZ basis                                         
 INPUT CARD>Cs                                                                              
 INPUT CARD>                                                                                
 INPUT CARD>O                                                                               
 INPUT CARD>H   1   3.6                                                                     
 INPUT CARD>H   1   1.828   2   88.2                                                        
 INPUT CARD> $end                                                                           
     25000000 WORDS OF MEMORY AVAILABLE

     $BASIS REQUESTS READING THE "PALDUSTZ" BASIS SET FROM AN EXTERNAL FILE


     RUN TITLE
     ---------
 H2O, R(OH) = 3.6 au in Paldus' TZ basis                                         

 THE POINT GROUP OF THE MOLECULE IS CS      
 THE ORDER OF THE PRINCIPAL AXIS IS     0

 YOUR FULLY SUBSTITUTED Z-MATRIX IS
 O   
 H      1   1.9050381
 H      1   0.9673360  2   88.2000

 THE MOMENTS OF INERTIA ARE (AMU-ANGSTROM**2)
 IXX=     0.887   IYY=     3.450   IZZ=     4.337

 THE EXTERNAL BASIS SET FILE BEING READ IS
     "/home2/gururang/gamess_R1_2023/gamess/basis/basis.dat"
 *** WARNING! ATOM   1 SHELL    1 TYPE S HAS NORMALIZATION   1.02401242
 *** WARNING! ATOM   1 SHELL    2 TYPE S HAS NORMALIZATION   1.71509575
 *** WARNING! ATOM   1 SHELL    5 TYPE P HAS NORMALIZATION   2.58434766
 *** WARNING! ATOM   2 SHELL    8 TYPE S HAS NORMALIZATION   4.20152657
 *** WARNING! ATOM   3 SHELL   11 TYPE S HAS NORMALIZATION   4.20152657

 ATOM      ATOMIC                      COORDINATES (BOHR)
           CHARGE         X                   Y                   Z
 O           8.0    -0.2015391293       -0.1082616784        0.0000000000
 H           1.0     3.3968787793       -0.0015445063        0.0000000000
 H           1.0    -0.1983073653        1.7197354648        0.0000000000

          INTERNUCLEAR DISTANCES (ANGS.)
          ------------------------------

                1 O          2 H          3 H     

   1 O       0.0000000    1.9050381 *  0.9673360 *
   2 H       1.9050381 *  0.0000000    2.1092987 *
   3 H       0.9673360 *  2.1092987 *  0.0000000  

  * ... LESS THAN  3.000


     ATOMIC BASIS SET
     ----------------
 THE CONTRACTED PRIMITIVE FUNCTIONS HAVE BEEN UNNORMALIZED
 THE CONTRACTED BASIS FUNCTIONS ARE NOW NORMALIZED TO UNITY

  SHELL TYPE  PRIMITIVE        EXPONENT          CONTRACTION COEFFICIENT(S)

 O         

      1   S       1         15330.0000000    0.000520198307
      1   S       2          2299.0000000    0.004023344781
      1   S       3           522.4000000    0.020729083329
      1   S       4           147.3000000    0.081082327080
      1   S       5            47.5500000    0.236226352118
      1   S       6            16.7600000    0.443518209420
      1   S       7             6.2070000    0.358670588689
      1   S       8             0.6882000   -0.008349797237

      2   S       9         15330.0000000   -0.000197236012
      2   S      10          2299.0000000   -0.001535010700
      2   S      11           522.4000000   -0.007951183914
      2   S      12           147.3000000   -0.032113452892
      2   S      13            47.5500000   -0.100269643049
      2   S      14            16.7600000   -0.234047111838
      2   S      15             6.2070000   -0.301410927756
      2   S      16             0.6882000    1.034919649508

      3   S      17             1.7520000    1.000000000000

      4   S      18             0.2384000    1.000000000000

      5   P      19            34.4600000    0.041163489568
      5   P      20             7.7490000    0.257762835858
      5   P      21             2.2800000    0.802419274427

      6   P      22             0.7156000    1.000000000000

      7   P      23             0.2140000    1.000000000000

 H         

      8   S      24            33.8700000    0.025494863235
      8   S      25             5.0950000    0.190362765893
      8   S      26             1.1590000    0.852162022245

      9   S      27             0.3258000    1.000000000000

     10   S      28             0.1027000    1.000000000000

 H         

     11   S      29            33.8700000    0.025494863235
     11   S      30             5.0950000    0.190362765893
     11   S      31             1.1590000    0.852162022245

     12   S      32             0.3258000    1.000000000000

     13   S      33             0.1027000    1.000000000000

 TOTAL NUMBER OF BASIS SET SHELLS             =   13
 NUMBER OF CARTESIAN GAUSSIAN BASIS FUNCTIONS =   19
 NUMBER OF ELECTRONS                          =   10
 CHARGE OF MOLECULE                           =    0
 SPIN MULTIPLICITY                            =    1
 NUMBER OF OCCUPIED ORBITALS (ALPHA)          =    5
 NUMBER OF OCCUPIED ORBITALS (BETA )          =    5
 TOTAL NUMBER OF ATOMS                        =    3
 THE NUCLEAR REPULSION ENERGY IS        6.8494681302

     $CONTRL OPTIONS
     ---------------
 SCFTYP=ROHF         RUNTYP=FCIDUMP      EXETYP=RUN     
 MPLEVL=       0     CITYP =NONE         CCTYP =NONE         VBTYP =NONE    
 DFTTYP=NONE         TDDFT =NONE    
 MULT  =       1     ICHARG=       0     NZVAR =       0     COORD =ZMT     
 PP    =NONE         RELWFN=NONE         LOCAL =NONE         NUMGRD=       F
 ISPHER=      -1     NOSYM =       0     MAXIT =      30     UNITS =BOHR    
 PLTORB=       F     MOLPLT=       F     AIMPAC=       F     FRIEND=        
 NPRINT=       7     IREST =       0     GEOM  =INPUT   
 NORMF =       0     NORMP =       0     ITOL  =      20     ICUT  =       9
 INTTYP=BEST         GRDTYP=BEST         QMTTOL= 1.0E-06

     $SYSTEM OPTIONS
     ---------------
  REPLICATED MEMORY=    25000000 WORDS (ON EVERY NODE).
 DISTRIBUTED MEMDDI=           0 MILLION WORDS IN AGGREGATE,
 MEMDDI DISTRIBUTED OVER   1 PROCESSORS IS           0 WORDS/PROCESSOR.
 TOTAL MEMORY REQUESTED ON EACH PROCESSOR=    25000000 WORDS.
 TIMLIM=      525600.00 MINUTES, OR     365.0 DAYS.
 PARALL= F  BALTYP=  DLB     KDIAG=    0  COREFL= F
 MXSEQ2=     300 MXSEQ3=     150  mem10=         0  mem22=         0

          ----------------
          PROPERTIES INPUT
          ----------------

     MOMENTS            FIELD           POTENTIAL          DENSITY
 IEMOM =       1   IEFLD =       0   IEPOT =       0   IEDEN =       0
 WHERE =COMASS     WHERE =NUCLEI     WHERE =NUCLEI     WHERE =NUCLEI  
 OUTPUT=BOTH       OUTPUT=BOTH       OUTPUT=BOTH       OUTPUT=BOTH    
 IEMINT=       0   IEFINT=       0                     IEDINT=       0
                                                       MORB  =       0
          EXTRAPOLATION IN EFFECT
          SOSCF IN EFFECT
 ORBITAL PRINTING OPTION: NPREO=     1    19     2     1

     -------------------------------
     INTEGRAL TRANSFORMATION OPTIONS
     -------------------------------
     NWORD  =            0
     CUTTRF = 1.0E-09     MPTRAN =       0
     DIRTRF =       F     AOINTS =DUP     

          ----------------------
          INTEGRAL INPUT OPTIONS
          ----------------------
 NOPK  =       1 NORDER=       0 SCHWRZ=       F

   --- ENCODED Z MATRIX ---
 COORD  TYPE   I   J   K   L   M   N
    1      1    2   1
    2      1    3   1
    3      2    3   1   2

 THE DETERMINANT OF THE G MATRIX IS 10**(    -1)

     ------------------------------------------
     THE POINT GROUP IS CS , NAXIS= 0, ORDER= 2
     ------------------------------------------

     DIMENSIONS OF THE SYMMETRY SUBSPACES ARE
 A'  =   16     A'' =    3

 ..... DONE SETTING UP THE RUN .....
 STEP CPU TIME =     0.02 TOTAL CPU TIME =          0.0 (      0.0 MIN)
 TOTAL WALL CLOCK TIME=          0.0 SECONDS, CPU UTILIZATION IS    91.60%

          ********************
          1 ELECTRON INTEGRALS
          ********************
 ...... END OF ONE-ELECTRON INTEGRALS ......
 STEP CPU TIME =     0.00 TOTAL CPU TIME =          0.0 (      0.0 MIN)
 TOTAL WALL CLOCK TIME=          0.0 SECONDS, CPU UTILIZATION IS    92.02%

          -------------
          GUESS OPTIONS
          -------------
          GUESS =HUCKEL            NORB  =       0          NORDER=       0
          MIX   =       F          PRTMO =       F          PUNMO =       F
          TOLZ  = 1.0E-08          TOLE  = 1.0E-05
          SYMDEN=       F          PURIFY=       F

 INITIAL GUESS ORBITALS GENERATED BY HUCKEL   ROUTINE.
 HUCKEL GUESS REQUIRES      5056 WORDS.

 SYMMETRIES FOR INITIAL GUESS ORBITALS FOLLOW.  ALPHA SET(S).
     5 ORBITALS ARE OCCUPIED (    1 CORE ORBITALS).
     2=A'       3=A'       4=A'       5=A''      6=A'       7=A'       8=A'  
     9=A'      10=A'      11=A'      12=A'      13=A'      14=A'      15=A'  

 SYMMETRIES FOR INITIAL GUESS ORBITALS FOLLOW.   BETA SET(S).
     5 ORBITALS ARE OCCUPIED (    1 CORE ORBITALS).
     2=A'       3=A'       4=A'       5=A''      6=A'       7=A'       8=A'  
     9=A'      10=A'      11=A'      12=A'      13=A'      14=A'      15=A'  
 ...... END OF INITIAL ORBITAL SELECTION ......
 STEP CPU TIME =     0.00 TOTAL CPU TIME =          0.0 (      0.0 MIN)
 TOTAL WALL CLOCK TIME=          0.0 SECONDS, CPU UTILIZATION IS    92.78%

                    ----------------------
                    AO INTEGRAL TECHNOLOGY
                    ----------------------
     S,P,L SHELL ROTATED AXIS INTEGRALS, REPROGRAMMED BY
        KAZUYA ISHIMURA (IMS) AND JOSE SIERRA (SYNSTAR).
     S,P,D,L SHELL ROTATED AXIS INTEGRALS PROGRAMMED BY
        KAZUYA ISHIMURA (INSTITUTE FOR MOLECULAR SCIENCE).
     S,P,D,F,G SHELL TO TOTAL QUARTET ANGULAR MOMENTUM SUM 5,
        ERIC PROGRAM BY GRAHAM FLETCHER (ELORET AND NASA ADVANCED
        SUPERCOMPUTING DIVISION, AMES RESEARCH CENTER).
     S,P,D,F,G,L SHELL GENERAL RYS QUADRATURE PROGRAMMED BY
        MICHEL DUPUIS (PACIFIC NORTHWEST NATIONAL LABORATORY).

          --------------------
          2 ELECTRON INTEGRALS
          --------------------

 THE -PK- OPTION IS OFF, THE INTEGRALS ARE NOT IN SUPERMATRIX FORM.
 STORING   15000 INTEGRALS/RECORD ON DISK, USING 12 BYTES/INTEGRAL.
 TWO ELECTRON INTEGRAL EVALUATION REQUIRES   89447 WORDS OF MEMORY.
 II,JST,KST,LST =  1  1  1  1 NREC =         1 INTLOC =    1
 II,JST,KST,LST =  2  1  1  1 NREC =         1 INTLOC =    2
 II,JST,KST,LST =  3  1  1  1 NREC =         1 INTLOC =    7
 II,JST,KST,LST =  4  1  1  1 NREC =         1 INTLOC =   22
 II,JST,KST,LST =  5  1  1  1 NREC =         1 INTLOC =   56
 II,JST,KST,LST =  6  1  1  1 NREC =         1 INTLOC =  125
 II,JST,KST,LST =  7  1  1  1 NREC =         1 INTLOC =  329
 II,JST,KST,LST =  8  1  1  1 NREC =         1 INTLOC =  776
 II,JST,KST,LST =  9  1  1  1 NREC =         1 INTLOC = 1602
 II,JST,KST,LST = 10  1  1  1 NREC =         1 INTLOC = 2649
 II,JST,KST,LST = 11  1  1  1 NREC =         1 INTLOC = 3946
 II,JST,KST,LST = 12  1  1  1 NREC =         1 INTLOC = 5531
 II,JST,KST,LST = 13  1  1  1 NREC =         1 INTLOC = 7448
 TOTAL NUMBER OF NONZERO TWO-ELECTRON INTEGRALS =                9740
          1 INTEGRAL RECORDS WERE STORED ON DISK FILE  8.
  ...... END OF TWO-ELECTRON INTEGRALS .....
 STEP CPU TIME =     0.03 TOTAL CPU TIME =          0.1 (      0.0 MIN)
 TOTAL WALL CLOCK TIME=          0.1 SECONDS, CPU UTILIZATION IS    94.85%

          ---------------------------
                 ROHF SCF CALCULATION
          ---------------------------

     NUCLEAR ENERGY =         6.8494681302
     MAXIT = 30     NPUNCH=  2     MULT=  1
     EXTRAP=T  DAMP=F  SHIFT=F  RSTRCT=F  DIIS=F  SOSCF=T
     DENSITY MATRIX CONV=  1.00E-10
     ROHF CANONICALIZATION PARAMETERS
             C-C     O-O     V-V
     ALPHA -0.5000  0.5000  1.5000
     BETA   1.5000  0.5000 -0.5000
     SOSCF WILL OPTIMIZE      70 ORBITAL ROTATION ANGLES. SOGTOL= 2.500E-01
     MEMORY REQUIRED FOR UHF/ROHF ITERS=     33954 WORDS.

 ITER EX      TOTAL ENERGY        E CHANGE  DENSITY CHANGE    ORB. GRAD 
   1  0      -75.5480743675   -75.5480743675   0.219561732   0.000000000
          ---------------START SECOND ORDER SCF---------------
   2  1      -75.7599293979    -0.2118550304   0.137706895   0.119787843
   3  2      -75.7662781599    -0.0063487620   0.066739918   0.102028114
   4  3      -75.8153703793    -0.0490922194   0.011148504   0.007586155
   5  4      -75.8158840212    -0.0005136419   0.004554069   0.002440603
   6  5      -75.8159589864    -0.0000749651   0.001007835   0.000622758
   7  6      -75.8159675241    -0.0000085377   0.000355549   0.000373645
   8  7      -75.8159686214    -0.0000010973   0.000146025   0.000085306
   9  8      -75.8159687553    -0.0000001339   0.000052150   0.000043410
  10  9      -75.8159687781    -0.0000000228   0.000017135   0.000017993
  11 10      -75.8159687796    -0.0000000015   0.000003978   0.000003699
  12 11      -75.8159687797    -0.0000000000   0.000000382   0.000000405
  13 12      -75.8159687797    -0.0000000000   0.000000172   0.000000089
  14 13      -75.8159687797    -0.0000000000   0.000000037   0.000000027
  15 14      -75.8159687797     0.0000000000   0.000000004   0.000000003
  16 15      -75.8159687797    -0.0000000000   0.000000001   0.000000000
  17 16      -75.8159687797     0.0000000000   0.000000000   0.000000000
  18 17      -75.8159687797     0.0000000000   0.000000000   0.000000000
  19 18      -75.8159687797    -0.0000000000   0.000000000   0.000000000

          -----------------
          DENSITY CONVERGED
          -----------------
     TIME TO FORM FOCK OPERATORS=       0.0 SECONDS (       0.0 SEC/ITER)
     TIME TO SOLVE SCF EQUATIONS=       0.0 SECONDS (       0.0 SEC/ITER)

 FINAL ROHF ENERGY IS      -75.8159687797 AFTER  19 ITERATIONS

          --------------------
          SPIN SZ   =    0.000
          S-SQUARED =    0.000
          --------------------

          ------------
          EIGENVECTORS
          ------------

                      1          2          3          4          5
                  -20.6253    -1.3044    -0.6341    -0.5198    -0.4417
                     A'         A'         A'         A''        A'  
    1  O  1  S    0.976325  -0.001001   0.007972  -0.000000  -0.008383
    2  O  1  S   -0.000416   0.535251  -0.164465  -0.000000  -0.072337
    3  O  1  S    0.042733   0.141453  -0.056724  -0.000000  -0.020276
    4  O  1  S    0.003479   0.328570  -0.263692  -0.000000  -0.030411
    5  O  1  X    0.000843  -0.000985   0.002762  -0.000000   0.244401
    6  O  1  Y    0.002049   0.052034   0.298453  -0.000000   0.006273
    7  O  1  Z    0.000000  -0.000000   0.000000   0.372693   0.000000
    8  O  1  X   -0.000486   0.000212   0.001355  -0.000000   0.309781
    9  O  1  Y   -0.001096   0.092854   0.379445  -0.000000   0.003148
   10  O  1  Z    0.000000  -0.000000   0.000000   0.463088   0.000000
   11  O  1  X    0.000273   0.006879   0.001662  -0.000000   0.319220
   12  O  1  Y    0.000844   0.016220   0.206917  -0.000000   0.029985
   13  O  1  Z    0.000000  -0.000000   0.000000   0.385483   0.000000
   14  H  2  S    0.000049   0.010000  -0.009814  -0.000000   0.126923
   15  H  2  S   -0.000129   0.018882  -0.020811  -0.000000   0.252999
   16  H  2  S   -0.000005   0.004877  -0.022068  -0.000000   0.255513
   17  H  3  S    0.000506   0.110308   0.168193  -0.000000  -0.004641
   18  H  3  S   -0.000456   0.072123   0.261076  -0.000000  -0.028567
   19  H  3  S   -0.000626   0.005888   0.041439  -0.000000   0.008933

                      6          7          8          9         10
                   -0.0254     0.1671     0.3774     0.5790     0.7839
                     A'         A'         A'         A'         A'' 
    1  O  1  S    0.010328   0.040212   0.028033  -0.015048   0.000000
    2  O  1  S   -0.049492  -0.040062   0.055378  -0.136202   0.000000
    3  O  1  S   -0.020394  -0.030990   0.006062  -0.027977   0.000000
    4  O  1  S   -0.191559  -0.766179  -0.279342  -0.622191   0.000000
    5  O  1  X   -0.234558   0.035016   0.039034  -0.031318   0.000000
    6  O  1  Y   -0.000325  -0.125902   0.003026  -0.142809   0.000000
    7  O  1  Z   -0.000000  -0.000000  -0.000000   0.000000  -0.252456
    8  O  1  X   -0.273481   0.033054   0.082617  -0.076324   0.000000
    9  O  1  Y   -0.007845  -0.148887   0.000540  -0.238604   0.000000
   10  O  1  Z   -0.000000  -0.000000  -0.000000   0.000000  -0.776111
   11  O  1  X   -0.417999   0.095194  -0.187990   0.070495   0.000000
   12  O  1  Y    0.004889  -0.367523  -0.089127  -1.006414   0.000000
   13  O  1  Z   -0.000000  -0.000000  -0.000000   0.000000   1.195273
   14  H  2  S    0.151884  -0.033901  -0.103901   0.016847   0.000000
   15  H  2  S    0.237237  -0.080079  -1.392007   0.234627   0.000000
   16  H  2  S    0.626704  -0.333818   1.737633  -0.080789   0.000000
   17  H  3  S    0.000279   0.049168   0.014557   0.112786   0.000000
   18  H  3  S   -0.001252  -0.043505   0.264237   2.140701   0.000000
   19  H  3  S    0.056919   1.606499  -0.431451  -0.892505   0.000000

                     11         12         13         14         15
                    0.8226     0.8931     1.2454     2.4457     2.5222
                     A'         A'         A'         A'         A'  
    1  O  1  S    0.061784   0.013743  -0.578621  -0.044199   0.110517
    2  O  1  S    0.224903   0.027839  -1.573252  -0.027943   0.204283
    3  O  1  S    0.041829   0.004391  -0.307846   0.033742   0.013567
    4  O  1  S    0.076557  -0.144491   2.680982  -0.375599  -0.099502
    5  O  1  X   -0.095068  -0.249077  -0.030914  -0.017857  -0.065700
    6  O  1  Y   -0.219850   0.108206  -0.069436   0.212123  -0.143121
    7  O  1  Z   -0.000000   0.000000   0.000000  -0.000000   0.000000
    8  O  1  X   -0.298225  -0.786674  -0.069553   0.050747   0.053112
    9  O  1  Y   -0.726476   0.330921  -0.156140  -0.099858   0.101719
   10  O  1  Z   -0.000000   0.000000   0.000000  -0.000000   0.000000
   11  O  1  X    0.419736   1.244364   0.129239  -0.133061  -0.055726
   12  O  1  Y    1.361211  -0.517525   0.871792  -0.403887   0.059050
   13  O  1  Z   -0.000000   0.000000   0.000000  -0.000000   0.000000
   14  H  2  S   -0.004712   0.013538  -0.068245  -0.930787  -1.243878
   15  H  2  S   -0.213671  -0.256588  -0.142312   1.188075   1.535373
   16  H  2  S    0.204896  -0.249281   0.015585  -0.426023  -0.739931
   17  H  3  S   -0.014366  -0.020670   0.014558  -1.221464   0.924605
   18  H  3  S   -0.245688  -0.154293  -0.630826   1.945646  -1.254144
   19  H  3  S   -0.390303   0.515143  -0.784621  -0.582053   0.634285

                     16         17         18         19
                    4.0770     4.1338     4.2720     8.1869
                     A''        A'         A'         A'  
    1  O  1  S    0.000000  -0.002953  -0.031573   2.497195
    2  O  1  S    0.000000   0.009172   0.010456   3.273963
    3  O  1  S    0.000000   0.018308   0.082342  -2.482166
    4  O  1  S    0.000000  -0.065538  -0.282456  -1.924698
    5  O  1  X    0.000000  -1.241494   0.074390  -0.013008
    6  O  1  Y    0.000000  -0.066279  -1.226853  -0.074512
    7  O  1  Z   -1.233864  -0.000000   0.000000   0.000000
    8  O  1  X    0.000000   1.461528  -0.092318   0.036085
    9  O  1  Y    0.000000   0.070636   1.506200   0.176592
   10  O  1  Z    1.431244  -0.000000   0.000000   0.000000
   11  O  1  X    0.000000  -0.669243   0.054335  -0.057447
   12  O  1  Y    0.000000  -0.048178  -0.792691  -0.394684
   13  O  1  Z   -0.579309  -0.000000   0.000000   0.000000
   14  H  2  S    0.000000   0.083482  -0.024202  -0.032656
   15  H  2  S    0.000000  -0.034096   0.066294   0.117062
   16  H  2  S    0.000000   0.151760  -0.086400  -0.004134
   17  H  3  S    0.000000  -0.072372  -0.489341  -0.154053
   18  H  3  S    0.000000   0.154466   0.527645   0.302296
   19  H  3  S    0.000000  -0.112330   0.102953   0.425679
 ...... END OF ROHF CALCULATION ......
 STEP CPU TIME =     0.01 TOTAL CPU TIME =          0.1 (      0.0 MIN)
 TOTAL WALL CLOCK TIME=          0.1 SECONDS, CPU UTILIZATION IS    95.98%

     ----------------------------------------------------------------
     PROPERTY VALUES FOR THE ROHF  SELF-CONSISTENT FIELD WAVEFUNCTION
     ----------------------------------------------------------------

          -----------------
          ENERGY COMPONENTS
          -----------------

         WAVEFUNCTION NORMALIZATION =       1.0000000000

                ONE ELECTRON ENERGY =    -118.2803539003
                TWO ELECTRON ENERGY =      35.6149169904
           NUCLEAR REPULSION ENERGY =       6.8494681302
                                      ------------------
                       TOTAL ENERGY =     -75.8159687797

 ELECTRON-ELECTRON POTENTIAL ENERGY =      35.6149169904
  NUCLEUS-ELECTRON POTENTIAL ENERGY =    -193.7592903126
   NUCLEUS-NUCLEUS POTENTIAL ENERGY =       6.8494681302
                                      ------------------
             TOTAL POTENTIAL ENERGY =    -151.2949051921
               TOTAL KINETIC ENERGY =      75.4789364124
                 VIRIAL RATIO (V/T) =       2.0044652506

  ...... PI ENERGY ANALYSIS ......

 ENERGY ANALYSIS:
            FOCK ENERGY=    -47.0505199195
          BARE H ENERGY=   -118.2803539003
     ELECTRONIC ENERGY =    -82.6654369099
         KINETIC ENERGY=     75.4789364124
          N-N REPULSION=      6.8494681302
           TOTAL ENERGY=    -75.8159687797
        SIGMA PART(1+2)=    -75.1951019864
               (K,V1,2)=     70.7037993380   -175.0831095522     29.1842082279
           PI PART(1+2)=     -7.4703349235
               (K,V1,2)=      4.7751370744    -18.6761807604      6.4307087625
  SIGMA SKELETON, ERROR=    -68.3456338562     -0.0000000000
             MIXED PART= 0.00000E+00 0.00000E+00 0.00000E+00 0.00000E+00
 ...... END OF PI ENERGY ANALYSIS ......

          ---------------------------------------
          MULLIKEN AND LOWDIN POPULATION ANALYSES
          ---------------------------------------

     ATOMIC MULLIKEN POPULATION IN EACH MOLECULAR ORBITAL

                      1          2          3          4          5

                  2.000000   2.000000   2.000000   2.000000   2.000000

    1             2.000132   1.792572   1.549473   2.000000   1.205971
    2            -0.000001   0.008225   0.006370   0.000000   0.793015
    3            -0.000131   0.199203   0.444158   0.000000   0.001015

     ATOMIC SPIN POPULATION (ALPHA MINUS BETA)
       ATOM         MULL.POP.                    LOW.POP.
    1 O             0.000000                     0.000000
    2 H             0.000000                     0.000000
    3 H             0.000000                     0.000000

               ----- POPULATIONS IN EACH AO -----
                             MULLIKEN      LOWDIN
              1  O  1  S      1.95141     1.61645
              2  O  1  S      1.06183     0.97958
              3  O  1  S      0.24782     0.55040
              4  O  1  S      0.68008     0.64545
              5  O  1  X      0.24779     0.24125
              6  O  1  Y      0.38325     0.37503
              7  O  1  Z      0.54364     0.53968
              8  O  1  X      0.44725     0.44969
              9  O  1  Y      0.70045     0.66453
             10  O  1  Z      0.86829     0.87530
             11  O  1  X      0.50068     0.50276
             12  O  1  Y      0.32760     0.42673
             13  O  1  Z      0.58808     0.58502
             14  H  2  S      0.11637     0.12903
             15  H  2  S      0.35364     0.34821
             16  H  2  S      0.33760     0.33820
             17  H  3  S      0.26999     0.27559
             18  H  3  S      0.34939     0.33975
             19  H  3  S      0.02487     0.11736

          ----- MULLIKEN ATOMIC OVERLAP POPULATIONS -----
          (OFF-DIAGONAL ELEMENTS NEED TO BE MULTIPLIED BY 2)

             1           2           3

    1    8.1496744
    2    0.1737523   0.6402105
    3    0.2247207  -0.0063552   0.4258795

          TOTAL MULLIKEN AND LOWDIN ATOMIC POPULATIONS
       ATOM         MULL.POP.    CHARGE          LOW.POP.     CHARGE
    1 O             8.548147   -0.548147         8.451872   -0.451872
    2 H             0.807608    0.192392         0.815434    0.184566
    3 H             0.644245    0.355755         0.732693    0.267307

          -------------------------------
          BOND ORDER AND VALENCE ANALYSIS     BOND ORDER THRESHOLD=0.050
          -------------------------------

                   BOND                       BOND                       BOND
  ATOM PAIR DIST  ORDER      ATOM PAIR DIST  ORDER      ATOM PAIR DIST  ORDER
    1   2  1.905  0.959        1   3  0.967  0.850

                       TOTAL       BONDED        FREE
      ATOM            VALENCE     VALENCE     VALENCE
    1 O                 1.809       1.809      -0.000
    2 H                 0.959       0.959      -0.000
    3 H                 0.850       0.850       0.000

          -----------------------------------------
          ATOMIC SPIN DENSITY AT THE NUCLEUS (A.U.)
          -----------------------------------------
                            SPIN DENS    ALPHA DENS     BETA DENS
    1  O            8.0     0.0000000     149.81084     149.81084
    2  H            1.0     0.0000000       0.09271       0.09271
    3  H            1.0     0.0000000       0.21249       0.21249

          ---------------------
          ELECTROSTATIC MOMENTS
          ---------------------

 POINT   1           X           Y           Z (BOHR)    CHARGE
                 0.000000    0.000000    0.000000       -0.00 (A.U.)
         DX          DY          DZ         /D/  (DEBYE)
     1.684930    2.189267    0.000000    2.762586
 ...... END OF PROPERTY EVALUATION ......
 STEP CPU TIME =     0.01 TOTAL CPU TIME =          0.1 (      0.0 MIN)
 TOTAL WALL CLOCK TIME=          0.1 SECONDS, CPU UTILIZATION IS    96.29%

     --------------------------------------------
     PARTIAL TWO ELECTRON INTEGRAL TRANSFORMATION
     --------------------------------------------

 NUMBER OF CORE MOLECULAR ORBITALS     =    0
 NUMBER OF OCCUPIED MOLECULAR ORBITALS =   19
 TOTAL NUMBER OF MOLECULAR ORBITALS    =   19
 TOTAL NUMBER OF ATOMIC ORBITALS       =   19
 THRESHOLD FOR KEEPING TRANSFORMED 2E- INTEGRALS = 1.000E-09
 AO INTEGRALS WILL BE READ IN FROM DISK...

 PLAN A: REQUIREMENTS FOR FULLY IN-MEMORY TRANSFORMATION:
 # OF WORDS AVAILABLE =             24999999
 # OF WORDS NEEDED    =               130435

 CHOOSING IN MEMORY PARTIAL TRANSFORMATION...
 TOTAL NUMBER OF TRANSFORMED 2E- INTEGRALS KEPT =        11329
 ... END OF INTEGRAL TRANSFORMATION ...
 STEP CPU TIME =     0.00 TOTAL CPU TIME =          0.1 (      0.0 MIN)
 TOTAL WALL CLOCK TIME=          0.1 SECONDS, CPU UTILIZATION IS    96.50%

     --------------------------------------------------
          FCIDUMP INTEGRAL FILE GENERATION
          WRITTEN BY J. EMILIANO DEUSTUA
     --------------------------------------------------
    WRITING INTEGRALS FROM SERIAL TRANSFORMATION

               580000  WORDS OF DYNAMIC MEMORY USED
 EXECUTION OF GAMESS TERMINATED NORMALLY 22:07:25 08-NOV-2023    
 DDI: 263640 bytes (0.3 MB / 0 MWords) used by master data server.

 ----------------------------------------
 CPU timing information for all processes
 ========================================
 0: 0.99 + 0.17 = 0.117
 ----------------------------------------
 ddikick.x: exited gracefully.
----- accounting info -----
Files used on the parent node coupled.cem.msu.edu were:
-rw-r--r-- 1 gururang piecuch     351 Nov  8 22:07 /scratch/gururang/fcidump-h2o-3.6.F05
-rw-r--r-- 1 gururang piecuch  180016 Nov  8 22:07 /scratch/gururang/fcidump-h2o-3.6.F08
-rw-r--r-- 1 gururang piecuch  181544 Nov  8 22:07 /scratch/gururang/fcidump-h2o-3.6.F09
-rw-r--r-- 1 gururang piecuch 2126800 Nov  8 22:07 /scratch/gururang/fcidump-h2o-3.6.F10
Wed Nov  8 22:07:26 EST 2023
0.187u 0.100s 0:01.42 19.7%	0+0k 0+8io 0pf+0w
