 &FCI NORB=24,NELEC=10,MS2=0
  ORBSYM=1,1,3,4,1,1,4,1,4,3,1,4,1,2,4,1,3,4,1,1,2,3,1,4,
  ISYM=1 UHF=.FALSE.
 &END
  0.4742513830187223D+01   1   1   1   1
  0.4678729941205959D+00   2   1   1   1
  0.1115188985427477D+01   2   2   1   1
  0.1081100443428755D+01   3   3   1   1
  0.6685807718246998D+00   4   4   1   1
 -0.5992282380216776D-01   5   1   1   1
 -0.9100801101560506D-01   5   2   1   1
  0.7518515016808851D+00   5   5   1   1
 -0.7809664598064586D-01   6   1   1   1
 -0.1150967002544030D+00   6   2   1   1
 -0.3518088645754806D+00   6   5   1   1
  0.5676973366054280D+00   6   6   1   1
  0.3760386921800564D+00   7   4   1   1
  0.6148969634017146D+00   7   7   1   1
 -0.2237429323566825D-01   8   1   1   1
 -0.2889074647149575D-01   8   2   1   1
  0.4836457918992185D-01   8   5   1   1
 -0.6571645345398208D-01   8   6   1   1
  0.2653552766087069D+00   8   8   1   1
  0.3769247809926674D-01   9   4   1   1
  0.8885665386127976D-01   9   7   1   1
  0.2550228479775508D+00   9   9   1   1
  0.4796593119693107D+00  10   3   1   1
  0.8680804630632366D+00  10  10   1   1
  0.6510594754709713D-01  11   1   1   1
  0.6658874843399086D-01  11   2   1   1
  0.3218868085140415D+00  11   5   1   1
 -0.3255280282597894D+00  11   6   1   1
  0.6696407845538352D-01  11   8   1   1
  0.8390334444348655D+00  11  11   1   1
 -0.2922390524086728D+00  12   4   1   1
 -0.3524983167559936D+00  12   7   1   1
 -0.7770280190288699D-01  12   9   1   1
  0.8198525228390077D+00  12  12   1   1
  0.2984030848333579D+00  13   1   1   1
  0.3224431803964443D+00  13   2   1   1
 -0.1694890472548655D+00  13   5   1   1
 -0.8890468128437468D-02  13   6   1   1
 -0.4014421048549750D-01  13   8   1   1
 -0.1076313522925543D+00  13  11   1   1
  0.6571402609526836D+00  13  13   1   1
  0.2800642759329864D+00  14  14   1   1
 -0.1315613422171663D-01  15   4   1   1
 -0.3283918245109933D-01  15   7   1   1
 -0.1364084810137472D-01  15   9   1   1
  0.3931636400075036D-01  15  12   1   1
  0.2853577968444163D+00  15  15   1   1
 -0.1065921333737086D+00  16   1   1   1
 -0.1135173871995382D+00  16   2   1   1
  0.1361034764045287D+00  16   5   1   1
 -0.7737033140638065D-01  16   6   1   1
  0.3764686059804541D-01  16   8   1   1
  0.1831899846707489D+00  16  11   1   1
 -0.1786758621085247D+00  16  13   1   1
  0.3997912001824755D+00  16  16   1   1
 -0.1706690055699215D+00  17   3   1   1
 -0.2283702531913021D+00  17  10   1   1
  0.3683355118400523D+00  17  17   1   1
  0.1750308778989127D+00  18   4   1   1
  0.1517249164592045D+00  18   7   1   1
  0.1207723438812001D-01  18   9   1   1
 -0.3216211273138005D+00  18  12   1   1
 -0.8211443588675121D-02  18  15   1   1
  0.5368083690287236D+00  18  18   1   1
 -0.2709058970387710D+00  19   1   1   1
 -0.2660690750026138D+00  19   2   1   1
 -0.5436623788040688D-01  19   5   1   1
  0.1195584710731544D+00  19   6   1   1
  0.3173047855420413D-01  19   8   1   1
 -0.2247386047274106D+00  19  11   1   1
 -0.2134761381546835D+00  19  13   1   1
  0.4061473339459756D-01  19  16   1   1
  0.6329802466662077D+00  19  19   1   1
  0.4145121268791568D-02  20   1   1   1
  0.3869002813497089D-02  20   2   1   1
 -0.1863241205156029D-02  20   5   1   1
 -0.1153617905655231D-02  20   6   1   1
 -0.2593199409564495D-04  20   8   1   1
 -0.5856873302487210D-02  20  11   1   1
  0.1623114199729487D-01  20  13   1   1
  0.2493858049171370D-01  20  16   1   1
  0.5796629954734981D-02  20  19   1   1
  0.9246898756622711D+00  20  20   1   1
  0.2738195506358884D-01  21  14   1   1
  0.9249916956329667D+00  21  21   1   1
  0.2797478249305371D-02  22   3   1   1
  0.1008389625405486D-01  22  10   1   1
  0.1724146558640230D-01  22  17   1   1
  0.9255684984791069D+00  22  22   1   1
  0.3372737004219988D-01  23   1   1   1
  0.2811853884096033D-01  23   2   1   1
  0.1683924776215295D-02  23   5   1   1
 -0.2651569842316364D-01  23   6   1   1
  0.3847350632936450D-02  23   8   1   1
  0.4575174057398101D-01  23  11   1   1
  0.5914961994624153D-01  23  13   1   1
  0.1099930389890652D-01  23  16   1   1
  0.6586211666647525D-01  23  19   1   1
 -0.2326505408119675D-02  23  20   1   1
  0.9103826209760498D+00  23  23   1   1
  0.1238127642439728D-01  24   4   1   1
  0.3927014392114474D-01  24   7   1   1
  0.1033085122040594D-01  24   9   1   1
 -0.7797506100585874D-01  24  12   1   1
 -0.4172911571830140D-01  24  15   1   1
 -0.9419131622740820D-01  24  18   1   1
  0.9008342057220404D+00  24  24   1   1
  0.7475026884703313D-01   2   1   2   1
  0.1994378884763172D-01   2   2   2   1
  0.1333526380961798D-01   3   3   2   1
  0.5656901044357851D-02   4   4   2   1
 -0.9828143421473586D-02   5   1   2   1
 -0.2568572649251238D-02   5   2   2   1
  0.7314000201566688D-02   5   5   2   1
 -0.1245415898687129D-01   6   1   2   1
 -0.3399808711417541D-02   6   2   2   1
 -0.5280711808490388D-02   6   5   2   1
  0.5274263825307367D-02   6   6   2   1
  0.5752087511917076D-02   7   4   2   1
  0.5861491481456585D-02   7   7   2   1
 -0.3710554964687009D-02   8   1   2   1
 -0.9941830352391970D-03   8   2   2   1
  0.1441404921118258D-02   8   5   2   1
 -0.9080956261494248D-03   8   6   2   1
  0.3038856849535467D-03   8   8   2   1
  0.1296782476756549D-02   9   4   2   1
  0.1323613885384326D-02   9   7   2   1
  0.3055903518566985D-03   9   9   2   1
  0.1432972785676766D-01  10   3   2   1
  0.1557855306950461D-01  10  10   2   1
  0.1018860174577823D-01  11   1   2   1
  0.2791574527150865D-02  11   2   2   1
  0.9639505906464127D-02  11   5   2   1
 -0.8689460604709136D-02  11   6   2   1
  0.1761345745324714D-02  11   8   2   1
  0.1495731857442957D-01  11  11   2   1
 -0.8930269078715029D-02  12   4   2   1
 -0.9102511350526015D-02  12   7   2   1
 -0.2077895144438546D-02  12   9   2   1
  0.1431836572345326D-01  12  12   2   1
  0.4799557159258715D-01  13   1   2   1
  0.1295122619014056D-01  13   2   2   1
 -0.4916593208638970D-02  13   5   2   1
  0.4530323938099082D-03  13   6   2   1
 -0.1247719329222100D-02  13   8   2   1
 -0.2848604034837730D-02  13  11   2   1
  0.1006896256406065D-01  13  13   2   1
  0.8050584923552664D-05  14  14   2   1
 -0.5620029312883450D-03  15   4   2   1
 -0.5803977583839349D-03  15   7   2   1
 -0.1345380977088120D-03  15   9   2   1
  0.9105382750426867D-03  15  12   2   1
  0.6953820568257278D-04  15  15   2   1
 -0.1720950043014996D-01  16   1   2   1
 -0.4638690244683957D-02  16   2   2   1
  0.4418570567480060D-02  16   5   2   1
 -0.2343058316549723D-02  16   6   2   1
  0.9513199338923007D-03  16   8   2   1
  0.4885345702950647D-02  16  11   2   1
 -0.4851265844383279D-02  16  13   2   1
  0.3222161713866117D-02  16  16   2   1
 -0.5618363461860583D-02  17   3   2   1
 -0.6112666075587877D-02  17  10   2   1
  0.2406573579328863D-02  17  17   2   1
  0.5801125754770630D-02  18   4   2   1
  0.5900059574090471D-02  18   7   2   1
  0.1343556917976024D-02  18   9   2   1
 -0.9307249506178174D-02  18  12   2   1
 -0.5694163280989189D-03  18  15   2   1
  0.6149517697725736D-02  18  18   2   1
 -0.4335863051787511D-01  19   1   2   1
 -0.1175013993187832D-01  19   2   2   1
 -0.1840950095428741D-02  19   5   2   1
  0.4755271515739909D-02  19   6   2   1
 -0.6264944262116280D-04  19   8   2   1
 -0.6622781784490768D-02  19  11   2   1
 -0.6187080848919187D-02  19  13   2   1
  0.9181597191765388D-03  19  16   2   1
  0.8874046708170590D-02  19  19   2   1
  0.6772063560529336D-03  20   1   2   1
  0.1966289865403451D-03  20   2   2   1
  0.1283033655637530D-04  20   5   2   1
 -0.6573123183137838D-04  20   6   2   1
 -0.3256992372950782D-05  20   8   2   1
  0.1086646071980359D-04  20  11   2   1
  0.1623025812920979D-03  20  13   2   1
  0.2239656889382412D-04  20  16   2   1
 -0.7688930724731170D-04  20  19   2   1
  0.1959771593233555D-02  20  20   2   1
  0.7171077858831481D-04  21  14   2   1
  0.1939750903284564D-02  21  21   2   1
  0.3962479834819603D-04  22   3   2   1
  0.1120677789643510D-03  22  10   2   1
  0.8849386706208662D-05  22  17   2   1
  0.1940901464851491D-02  22  22   2   1
  0.5340451563049292D-02  23   1   2   1
  0.1408825805283139D-02  23   2   2   1
  0.3757022591493765D-03  23   5   2   1
 -0.7321075586714394D-03  23   6   2   1
  0.6989593493256802D-04  23   8   2   1
  0.1087145568619466D-02  23  11   2   1
  0.7666438117826876D-03  23  13   2   1
  0.1764148095022179D-04  23  16   2   1
 -0.8689297969781118D-03  23  19   2   1
  0.1876667703730712D-04  23  20   2   1
  0.2050934552673741D-02  23  23   2   1
  0.9720385843779917D-03  24   4   2   1
  0.1049638770511691D-02  24   7   2   1
  0.2784564218192223D-03  24   9   2   1
 -0.1725014330982453D-02  24  12   2   1
 -0.2064149462676788D-03  24  15   2   1
  0.7376633987416528D-03  24  18   2   1
  0.2104170725224242D-02  24  24   2   1
  0.7797158688037731D+00   2   2   2   2
  0.7589843460824786D+00   3   3   2   2
  0.5274833427526674D+00   4   4   2   2
 -0.2291420041399436D-02   5   1   2   2
 -0.4682642416152097D-01   5   2   2   2
  0.5732801280446779D+00   5   5   2   2
 -0.3270480050253799D-02   6   1   2   2
 -0.6203370700689384D-01   6   2   2   2
 -0.2170899185576942D+00   6   5   2   2
  0.4452185518670624D+00   6   6   2   2
  0.2327813348684360D+00   7   4   2   2
  0.4722598060817030D+00   7   7   2   2
 -0.8648925080495105D-03   8   1   2   2
 -0.1389968691311874D-01   8   2   2   2
  0.1742738894338582D-01   8   5   2   2
 -0.4562918476051709D-01   8   6   2   2
  0.2611567406729413D+00   8   8   2   2
  0.9102571727819465D-02   9   4   2   2
  0.6097852018171683D-01   9   7   2   2
  0.2506238240553577D+00   9   9   2   2
  0.1934960674598388D+00  10   3   2   2
  0.5805307991052453D+00  10  10   2   2
  0.2813693640286881D-02  11   1   2   2
  0.2516342764009771D-01  11   2   2   2
  0.1234054059514719D+00  11   5   2   2
 -0.1513073805556310D+00  11   6   2   2
  0.3244275636068125D-01  11   8   2   2
  0.5621131784568310D+00  11  11   2   2
 -0.1091662980535320D+00  12   4   2   2
 -0.1656803495091989D+00  12   7   2   2
 -0.3812734164507160D-01  12   9   2   2
  0.5519344331870678D+00  12  12   2   2
  0.1172536454495599D-01  13   1   2   2
  0.1245746825353235D+00  13   2   2   2
 -0.7982995322054053D-01  13   5   2   2
 -0.2699825418954919D-01  13   6   2   2
 -0.1901016420410399D-01  13   8   2   2
 -0.4895391478067548D-01  13  11   2   2
  0.4938191423081580D+00  13  13   2   2
  0.2818128445817955D+00  14  14   2   2
 -0.8608636721447881D-03  15   4   2   2
 -0.2009319941161015D-01  15   7   2   2
 -0.1091469483984495D-01  15   9   2   2
  0.2127026387541783D-01  15  12   2   2
  0.2856620173978119D+00  15  15   2   2
 -0.4102982524378823D-02  16   1   2   2
 -0.4282600161300257D-01  16   2   2   2
  0.5167129097113683D-01  16   5   2   2
 -0.2756087602881007D-01  16   6   2   2
  0.2041853313699363D-01  16   8   2   2
  0.9046801075801181D-01  16  11   2   2
 -0.9644815970240056D-01  16  13   2   2
  0.3446173016228698D+00  16  16   2   2
 -0.6196149809428663D-01  17   3   2   2
 -0.1161388783631696D+00  17  10   2   2
  0.3265556515655160D+00  17  17   2   2
  0.6548005522941849D-01  18   4   2   2
  0.4107154096459634D-01  18   7   2   2
 -0.1173029328833071D-01  18   9   2   2
 -0.1543092517993112D+00  18  12   2   2
  0.8279386881284434D-03  18  15   2   2
  0.4249415759284367D+00  18  18   2   2
 -0.1066488948846173D-01  19   1   2   2
 -0.9099097303790347D-01  19   2   2   2
 -0.1529974078884688D-01  19   5   2   2
  0.3878089399587190D-01  19   6   2   2
  0.3433468898656129D-01  19   8   2   2
 -0.1115203491051048D+00  19  11   2   2
 -0.1183993430726474D+00  19  13   2   2
  0.2802805944489247D-01  19  16   2   2
  0.4863345853654585D+00  19  19   2   2
  0.1499260987106733D-03  20   1   2   2
  0.9811212523351044D-03  20   2   2   2
 -0.4260271089497358D-03  20   5   2   2
 -0.1192094382070575D-02  20   6   2   2
 -0.2433336629428860D-04  20   8   2   2
 -0.4060805393662510D-02  20  11   2   2
  0.1133020719772508D-01  20  13   2   2
  0.1987200248678179D-01  20  16   2   2
  0.5110791364813434D-02  20  19   2   2
  0.7656548413993629D+00  20  20   2   2
  0.2116976738544182D-01  21  14   2   2
  0.7659736181113764D+00  21  21   2   2
  0.2542876141598367D-03  22   3   2   2
  0.6317084829149290D-02  22  10   2   2
  0.1385887413868049D-01  22  17   2   2
  0.7660807875618678D+00  22  22   2   2
  0.1401299356860199D-02  23   1   2   2
  0.7149663236211608D-02  23   2   2   2
 -0.4105136477473306D-02  23   5   2   2
 -0.1215976437301134D-01  23   6   2   2
  0.5751656504338382D-03  23   8   2   2
  0.2516788500255643D-01  23  11   2   2
  0.4072399390145257D-01  23  13   2   2
  0.7979440055909908D-02  23  16   2   2
  0.5895120162017321D-01  23  19   2   2
 -0.1642504227685479D-02  23  20   2   2
  0.7530547779035283D+00  23  23   2   2
 -0.3700304453784649D-02  24   4   2   2
  0.1664825944344489D-01  24   7   2   2
  0.2909915800688583D-02  24   9   2   2
 -0.4287447567300876D-01  24  12   2   2
 -0.3091467337587254D-01  24  15   2   2
 -0.8222179461487908D-01  24  18   2   2
  0.7447291005001807D+00  24  24   2   2
  0.3332505227567583D-01   3   1   3   1
 -0.3521437264692488D-01   3   2   3   1
  0.4094144815757458D-02   5   3   3   1
  0.5314604801427407D-02   6   3   3   1
  0.4953069487937066D-03   8   3   3   1
  0.3629267328831272D-01  10   1   3   1
 -0.1973198379530475D-01  10   2   3   1
  0.3627866350071609D-02  10   5   3   1
  0.4298367065255142D-02  10   6   3   1
  0.1632924422510790D-02  10   8   3   1
 -0.3729855253955514D-02  11   3   3   1
 -0.3767466950654596D-02  11  10   3   1
 -0.1521991215947133D-01  13   3   3   1
 -0.1761318280874141D-01  13  10   3   1
  0.1414748489369551D-02  14   4   3   1
  0.9967519895072284D-04  14   7   3   1
 -0.9886941312829196D-04  14   9   3   1
 -0.1450812413793525D-03  14  12   3   1
  0.9472843656269893D-04  15  14   3   1
  0.4772737695944503D-02  16   3   3   1
  0.6165034808610545D-02  16  10   3   1
 -0.1424870638912543D-01  17   1   3   1
  0.6947212592392848D-02  17   2   3   1
 -0.9812268289579699D-04  17   5   3   1
 -0.1379044209856501D-02  17   6   3   1
 -0.8635198088804441D-03  17   8   3   1
  0.1536683305114409D-02  17  11   3   1
  0.6589141952013536D-02  17  13   3   1
 -0.2401127905894741D-02  17  16   3   1
  0.4084017422589259D-03  18  14   3   1
  0.7121683047266274D-02  19   3   3   1
  0.1387296668667245D-01  19  10   3   1
 -0.6051749010765516D-02  19  17   3   1
  0.1131600968124271D-01  20   3   3   1
  0.5601506952471611D-02  20  10   3   1
 -0.1825604396740827D-02  20  17   3   1
  0.1689172364613285D-01  21   4   3   1
  0.1657765275861391D-01  21   7   3   1
  0.2569442357638292D-02  21   9   3   1
 -0.1320751744975794D-01  21  12   3   1
 -0.1090509192879505D-02  21  15   3   1
  0.5279431762644755D-02  21  18   3   1
  0.3539417881023201D-03  22   1   3   1
 -0.2874020876054845D-03  22   2   3   1
  0.1853885139182502D-01  22   5   3   1
 -0.1475507628627826D-01  22   6   3   1
  0.2364949522345396D-02  22   8   3   1
  0.1300284461650569D-01  22  11   3   1
 -0.3444711617668760D-02  22  13   3   1
  0.4219571593524282D-02  22  16   3   1
 -0.2346163937636211D-02  22  19   3   1
 -0.6555280401741575D-04  22  20   3   1
 -0.2663890669036174D-01  23   3   3   1
 -0.1499699974540744D-01  23  10   3   1
  0.5140781022664166D-02  23  17   3   1
  0.1532677122405449D-03  23  22   3   1
  0.5623064729215128D-04  24  14   3   1
  0.7088316602265534D-03  24  21   3   1
  0.1535974690852742D+00   3   2   3   2
 -0.1440286184102832D-01   5   3   3   2
 -0.1919498233272877D-01   6   3   3   2
  0.2207020842844363D-02   8   3   3   2
 -0.3498646565203610D-01  10   1   3   2
  0.4322142055725867D-01  10   2   3   2
 -0.1493957244409880D-01  10   5   3   2
 -0.1771361243293649D-01  10   6   3   2
 -0.1090080352754253D-01  10   8   3   2
  0.9125074414079072D-02  11   3   3   2
  0.1503141133164330D-01  11  10   3   2
  0.2975710369748825D-01  13   3   3   2
  0.7012854956416434D-01  13  10   3   2
 -0.1175590875760243D-01  14   4   3   2
  0.3036238588392227D-02  14   7   3   2
  0.1839449966128407D-02  14   9   3   2
 -0.2256651214842985D-02  14  12   3   2
 -0.1330972773898573D-02  15  14   3   2
 -0.6512490869091316D-02  16   3   3   2
 -0.2478138361376526D-01  16  10   3   2
  0.1354687967832927D-01  17   1   3   2
 -0.1270035145920269D-01  17   2   3   2
 -0.4962540985679454D-02  17   5   3   2
  0.1310219366169962D-02  17   6   3   2
  0.7398254525872238D-02  17   8   3   2
 -0.3983638783480481D-02  17  11   3   2
 -0.2642330251576705D-01  17  13   3   2
  0.1099478498020114D-01  17  16   3   2
 -0.2555543721600897D-02  18  14   3   2
  0.1170197989102171D-01  19   3   3   2
 -0.6009172441045171D-01  19  10   3   2
  0.2994624785464039D-01  19  17   3   2
 -0.5440437147191615D-01  20   3   3   2
 -0.1381261203322594D-01  20  10   3   2
  0.2882170259541073D-02  20  17   3   2
 -0.8223749231667303D-01  21   4   3   2
 -0.7898764453453495D-01  21   7   3   2
 -0.1053057977449855D-01  21   9   3   2
  0.3859287223991150D-01  21  12   3   2
  0.4006075296553814D-02  21  15   3   2
 -0.3645870381468925D-02  21  18   3   2
 -0.3050674776963167D-03  22   1   3   2
  0.6123889196497018D-03  22   2   3   2
 -0.8952388986081262D-01  22   5   3   2
  0.7040991362948731D-01  22   6   3   2
 -0.9570970042125589D-02  22   8   3   2
 -0.3698419176109464D-01  22  11   3   2
  0.6261832498596178D-02  22  13   3   2
 -0.8916766611518264D-02  22  16   3   2
 -0.4276984727441060D-03  22  19   3   2
  0.3688490438195364D-03  22  20   3   2
  0.1199322638464216D+00  23   3   3   2
  0.4132936619068160D-01  23  10   3   2
 -0.1180937610295616D-01  23  17   3   2
  0.1186744022879685D-02  23  22   3   2
 -0.5641402825254690D-03  24  14   3   2
  0.1148300722429603D-02  24  21   3   2
  0.7963178749477673D+00   3   3   3   3
  0.5005758125702713D+00   4   4   3   3
 -0.1661115484118824D-02   5   1   3   3
 -0.4605613558290126D-01   5   2   3   3
  0.5438177110538193D+00   5   5   3   3
 -0.1838928689618848D-02   6   1   3   3
 -0.6193419157448909D-01   6   2   3   3
 -0.2014057380762323D+00   6   5   3   3
  0.4257900015104114D+00   6   6   3   3
  0.2163194432366822D+00   7   4   3   3
  0.4496346539376183D+00   7   7   3   3
 -0.6321681934307553D-03   8   1   3   3
 -0.1155703571930367D-01   8   2   3   3
  0.1792042376529696D-01   8   5   3   3
 -0.4121867503897095D-01   8   6   3   3
  0.2541864396045360D+00   8   8   3   3
  0.1051288563445308D-01   9   4   3   3
  0.5621812908394606D-01   9   7   3   3
  0.2436472610614744D+00   9   9   3   3
  0.2046281456738037D+00  10   3   3   3
  0.6048446001785979D+00  10  10   3   3
  0.1394512203195579D-02  11   1   3   3
  0.2669196650792754D-01  11   2   3   3
  0.1153493643547836D+00  11   5   3   3
 -0.1422687710652629D+00  11   6   3   3
  0.2959792312590240D-01  11   8   3   3
  0.5391933953858429D+00  11  11   3   3
 -0.1024032365282891D+00  12   4   3   3
 -0.1552778227329167D+00  12   7   3   3
 -0.3460904757908289D-01  12   9   3   3
  0.5284064536434138D+00  12  12   3   3
  0.7479686718672333D-02  13   1   3   3
  0.1232422944762537D+00  13   2   3   3
 -0.7476320830328219D-01  13   5   3   3
 -0.2714739506438371D-01  13   6   3   3
 -0.1971772167780608D-01  13   8   3   3
 -0.4620528077029473D-01  13  11   3   3
  0.4805691470694697D+00  13  13   3   3
  0.2731171206450609D+00  14  14   3   3
 -0.1138989154731293D-02  15   4   3   3
 -0.1868029431302477D-01  15   7   3   3
 -0.9738414782647755D-02  15   9   3   3
  0.1982751140375795D-01  15  12   3   3
  0.2748749262404275D+00  15  15   3   3
 -0.2792098180583003D-02  16   1   3   3
 -0.4081751474620272D-01  16   2   3   3
  0.4830826708148576D-01  16   5   3   3
 -0.2533593069246836D-01  16   6   3   3
  0.1949616475703200D-01  16   8   3   3
  0.8633807222550727D-01  16  11   3   3
 -0.9520712878313679D-01  16  13   3   3
  0.3328748540134582D+00  16  16   3   3
 -0.6396071616068272D-01  17   3   3   3
 -0.1304226273706456D+00  17  10   3   3
  0.3242302039938719D+00  17  17   3   3
  0.6000729796559328D-01  18   4   3   3
  0.3894288419966295D-01  18   7   3   3
 -0.1035438659072433D-01  18   9   3   3
 -0.1496423547859528D+00  18  12   3   3
 -0.9510627388534254D-04  18  15   3   3
  0.4079922598772208D+00  18  18   3   3
 -0.7663095644609780D-02  19   1   3   3
 -0.7715398056033550D-01  19   2   3   3
 -0.1409683892976543D-01  19   5   3   3
  0.3669692106046680D-01  19   6   3   3
  0.3281828199555140D-01  19   8   3   3
 -0.1090068710511845D+00  19  11   3   3
 -0.1195523727170369D+00  19  13   3   3
  0.2885910882366891D-01  19  16   3   3
  0.4773948109923242D+00  19  19   3   3
  0.2573167548849785D-02  20   1   3   3
 -0.2393058883908107D-01  20   2   3   3
  0.3009181975299761D-02  20   5   3   3
  0.2259108074805925D-02  20   6   3   3
  0.1724304475691854D-03  20   8   3   3
 -0.4752681679511475D-02  20  11   3   3
  0.4712750993111072D-02  20  13   3   3
  0.1869399655748750D-01  20  16   3   3
 -0.8908355923667021D-04  20  19   3   3
  0.7154428705310174D+00  20  20   3   3
  0.2126746482100495D-01  21  14   3   3
  0.7646468280069948D+00  21  21   3   3
 -0.6241272711332902D-03  22   3   3   3
  0.5994498062468311D-02  22  10   3   3
  0.1404126626308469D-01  22  17   3   3
  0.7650682115502183D+00  22  22   3   3
 -0.4606230669906591D-02  23   1   3   3
  0.6222121491830186D-01  23   2   3   3
 -0.1011093592287290D-01  23   5   3   3
 -0.1951046617369256D-01  23   6   3   3
 -0.3748453089766080D-03  23   8   3   3
  0.2776587603381282D-01  23  11   3   3
  0.5029183082395509D-01  23  13   3   3
  0.4322225737578506D-02  23  16   3   3
  0.5805408823076928D-01  23  19   3   3
 -0.3222333801166684D-01  23  20   3   3
  0.7581430059468343D+00  23  23   3   3
 -0.3433028258158408D-02  24   4   3   3
  0.1464947033582657D-01  24   7   3   3
  0.2285718546743621D-02  24   9   3   3
 -0.3986145623943903D-01  24  12   3   3
 -0.2750019720650127D-01  24  15   3   3
 -0.7127555527639985D-01  24  18   3   3
  0.6831223014742976D+00  24  24   3   3
  0.1403335150751106D-01   4   1   4   1
 -0.1620774253839967D-01   4   2   4   1
  0.1059197449112888D-03   5   4   4   1
  0.1015158050591624D-02   6   4   4   1
  0.1429903144446506D-01   7   1   4   1
 -0.1526712124956945D-01   7   2   4   1
  0.2736714226886033D-02   7   5   4   1
  0.2933935684907374D-02   7   6   4   1
  0.1135786605747589D-02   8   4   4   1
  0.1808897171653426D-03   8   7   4   1
  0.3271421953943402D-02   9   1   4   1
 -0.2306754088502040D-02   9   2   4   1
  0.1030482420951311D-02   9   5   4   1
  0.5606615094681146D-03   9   6   4   1
 -0.1754007550194143D-02   9   8   4   1
 -0.1173189213609609D-02  11   4   4   1
 -0.1355507461414497D-02  11   7   4   1
 -0.3352985391744099D-03  11   9   4   1
 -0.2254992900185985D-01  12   1   4   1
  0.1324467221021360D-01  12   2   4   1
 -0.2665387651328367D-02  12   5   4   1
 -0.2573145941593102D-02  12   6   4   1
 -0.1057312402898048D-02  12   8   4   1
  0.2546462958752497D-02  12  11   4   1
 -0.4380729952555168D-02  13   4   4   1
 -0.5574448026330890D-02  13   7   4   1
 -0.1726590704572778D-02  13   9   4   1
  0.1154306405274590D-01  13  12   4   1
  0.8216738213441410D-03  14   3   4   1
 -0.8273515451118580D-03  14  10   4   1
 -0.1429646718889289D-02  15   1   4   1
  0.9663253539649666D-03  15   2   4   1
 -0.9923626800089770D-03  15   5   4   1
  0.6331707843893476D-03  15   6   4   1
 -0.2145396451528492D-03  15   8   4   1
  0.9321204892814457D-03  15  11   4   1
  0.5181676796011504D-03  15  13   4   1
  0.2758508315143521D-02  16   4   4   1
  0.2448978007110437D-02  16   7   4   1
  0.6290456886030058D-03  16   9   4   1
 -0.3469284264063476D-02  16  12   4   1
 -0.2406861732970906D-02  16  15   4   1
 -0.2329432155938309D-02  17  14   4   1
  0.1469092591410962D-01  18   1   4   1
 -0.6551096884099112D-02  18   2   4   1
 -0.2163619972233825D-02  18   5   4   1
  0.3319056654195290D-02  18   6   4   1
  0.8761904389840271D-03  18   8   4   1
 -0.1792976887202301D-02  18  11   4   1
 -0.4854059378805851D-02  18  13   4   1
  0.2833403947620152D-02  18  16   4   1
  0.7195534875777940D-02  19   4   4   1
  0.6888239506340358D-02  19   7   4   1
  0.1006409456742173D-02  19   9   4   1
 -0.9660895768478641D-02  19  12   4   1
 -0.1564529883537805D-04  19  15   4   1
  0.8121985519713694D-02  19  18   4   1
  0.7402594926473944D-02  20   4   4   1
  0.7265668928185262D-02  20   7   4   1
  0.1114513107842183D-02  20   9   4   1
 -0.5734293041538070D-02  20  12   4   1
 -0.4555459857011887D-03  20  15   4   1
  0.2248830654382972D-02  20  18   4   1
  0.1599681877750741D-01  21   3   4   1
  0.8183163168385124D-02  21  10   4   1
 -0.2677010636388966D-02  21  17   4   1
  0.1775158718983858D-04  22  14   4   1
  0.4355241723514763D-04  22  21   4   1
  0.9510902857905358D-02  23   4   4   1
  0.9378019090982447D-02  23   7   4   1
  0.1410870578800830D-02  23   9   4   1
 -0.7068379393222610D-02  23  12   4   1
 -0.6388037182798792D-03  23  15   4   1
  0.2418840206769296D-02  23  18   4   1
  0.2704609035635600D-02  24   1   4   1
 -0.9952846385250355D-03  24   2   4   1
  0.1183270531556281D-01  24   5   4   1
 -0.9213895194960822D-02  24   6   4   1
  0.1596192990457912D-02  24   8   4   1
  0.8446197407201352D-02  24  11   4   1
 -0.3168137739799075D-02  24  13   4   1
  0.3229318293092164D-02  24  16   4   1
 -0.4934656881639504D-03  24  19   4   1
  0.2490423501442481D-03  24  20   4   1
  0.5659665602444228D-03  24  23   4   1
  0.8748363731932783D-01   4   2   4   2
  0.1902242049821950D-01   5   4   4   2
  0.1466183937672756D-01   6   4   4   2
 -0.1643195850171797D-01   7   1   4   2
  0.7214420200542394D-01   7   2   4   2
 -0.2529399233675998D-01   7   5   4   2
 -0.2902681171686532D-01   7   6   4   2
 -0.1363111247932615D-01   8   4   4   2
  0.9063469215055936D-02   8   7   4   2
 -0.3490633939579534D-02   9   1   4   2
  0.7061424636155817D-02   9   2   4   2
 -0.1332977911554211D-01   9   5   4   2
 -0.9390714322303567D-02   9   6   4   2
  0.3800081617488418D-01   9   8   4   2
 -0.1851147860355015D-02  11   4   4   2
  0.1926836057255153D-02  11   7   4   2
  0.3482452760186516D-02  11   9   4   2
  0.2368708531460730D-01  12   1   4   2
 -0.3225655779026903D-01  12   2   4   2
  0.1564380555639228D-01  12   5   4   2
  0.1201907572760902D-01  12   6   4   2
  0.6677999529913907D-02  12   8   4   2
 -0.2077565328156222D-01  12  11   4   2
 -0.8909429437181446D-02  13   4   4   2
  0.5220309604247860D-02  13   7   4   2
  0.1099185573159381D-01  13   9   4   2
 -0.7042964044849748D-01  13  12   4   2
 -0.6900892193144185D-02  14   3   4   2
  0.2097006063042331D-01  14  10   4   2
  0.1541152518486237D-02  15   1   4   2
 -0.2038153552153205D-02  15   2   4   2
  0.7525857638511678D-02  15   5   4   2
 -0.6991649421069078D-02  15   6   4   2
  0.2290765227988248D-02  15   8   4   2
 -0.2321145049221145D-01  15  11   4   2
  0.2279433164400449D-02  15  13   4   2
 -0.9229508545635664D-02  16   4   4   2
 -0.3578288877948053D-02  16   7   4   2
 -0.3130831636249132D-02  16   9   4   2
  0.3886639982684939D-02  16  12   4   2
  0.4211874316180458D-01  16  15   4   2
  0.4565731525243353D-01  17  14   4   2
 -0.1488111193037753D-01  18   1   4   2
  0.1107975221204015D-01  18   2   4   2
  0.2127289345604075D-01  18   5   4   2
 -0.1596649715549145D-01  18   6   4   2
 -0.1095052335962527D-01  18   8   4   2
 -0.7823077469148274D-02  18  11   4   2
  0.7974386878568811D-02  18  13   4   2
 -0.2519988399876410D-01  18  16   4   2
 -0.2091729329807840D-01  19   4   4   2
 -0.1448447148250297D-01  19   7   4   2
  0.2631942251376799D-02  19   9   4   2
  0.2462415205130270D-01  19  12   4   2
 -0.1028539225193141D-01  19  15   4   2
 -0.5277255266887842D-01  19  18   4   2
 -0.4111564231641104D-01  20   4   4   2
 -0.3972992910083548D-01  20   7   4   2
 -0.5275231014776813D-02  20   9   4   2
  0.1860439762151750D-01  20  12   4   2
  0.8727760126279274D-03  20  15   4   2
  0.4267993541156201D-03  20  18   4   2
 -0.8585631933804196D-01  21   3   4   2
 -0.2218747340555886D-01  21  10   4   2
  0.3425697167700147D-02  21  17   4   2
 -0.8825876520199398D-03  22  14   4   2
  0.1699441510959308D-02  22  21   4   2
 -0.5399630687819772D-01  23   4   4   2
 -0.5412936940254080D-01  23   7   4   2
 -0.8111497630748603D-02  23   9   4   2
  0.2504268774783442D-01  23  12   4   2
  0.3559949988886280D-02  23  15   4   2
  0.5199639233445626D-02  23  18   4   2
 -0.2516431162711559D-02  24   1   4   2
 -0.1897868469414524D-02  24   2   4   2
 -0.6183649827319003D-01  24   5   4   2
  0.5124492874848979D-01  24   6   4   2
 -0.8803830517146109D-02  24   8   4   2
 -0.3001641209016664D-01  24  11   4   2
  0.5765906535255046D-02  24  13   4   2
 -0.9388996281845322D-02  24  16   4   2
 -0.9707191295092406D-02  24  19   4   2
  0.4061444429909810D-03  24  20   4   2
  0.4598684565406188D-02  24  23   4   2
  0.2101527013355876D-01   4   3   4   3
  0.1877215273881698D-01   7   3   4   3
  0.3099592430274778D-02   9   3   4   3
  0.1488703063487943D-02  10   4   4   3
  0.6858684126491064D-02  10   7   4   3
  0.9353661300711586D-03  10   9   4   3
 -0.8606139704942568D-02  12   3   4   3
 -0.1670220349877119D-01  12  10   4   3
  0.1344912336659467D-03  14   1   4   3
 -0.2628782161539075D-02  14   2   4   3
 -0.3365112533938134D-02  14   5   4   3
 -0.3187984090430942D-02  14   6   4   3
  0.1649737420518190D-02  14   8   4   3
  0.1143772503124438D-02  14  11   4   3
  0.1427898059483530D-02  14  13   4   3
 -0.7312410252422201D-03  15   3   4   3
 -0.1330731615002179D-02  15  10   4   3
  0.5647786951086070D-03  16  14   4   3
 -0.3981739364889737D-02  17   4   4   3
  0.1265067078994970D-02  17   7   4   3
  0.1464883773941741D-02  17   9   4   3
  0.4951985958121950D-02  17  12   4   3