1 : h2o.inp
----- GAMESS execution script 'rungms' -----
This job is running on host coupled.cem.msu.edu
under operating system Linux at Tue Aug 29 22:49:48 EDT 2023
Available scratch disk space (Kbyte units) at beginning of the job is
Filesystem      1K-blocks       Used Available Use% Mounted on
/dev/sdb2      2620586816 2158372156 329089784  87% /scratch
GAMESS temporary binary files will be written to /scratch/gururang
GAMESS supplementary output files will be written to /scratch/gururang/test-gamess-eom/ip
Copying input file /scratch/gururang/test-gamess-eom/ip/h2o.inp to your run's scratch directory...

 Distributed Data Interface kickoff program.
 Initiating 1 compute processes on 1 nodes to run the following command:
 /home2/gururang/gamess_new/gamess/gamess.00.x h2o 

          *******************************************************
          *                                                     *
          *          GAMESS VERSION = 30 SEP 2022 (R2)          *
          *                                                     *
          *              doi.org/10.1063/5.0005188              *
          *                                                     *
          **************** 64 BIT LINUX VERSION *****************

  GAMESS HAS BEEN MADE POSSIBLE WITH IMPORTANT CONTRIBUTIONS FROM
  THE FOLLOWING INDIVIDUALS (IN ALPHABETICAL ORDER):

     IVANA ADAMOVIC, CHRISTINE AIKENS, TOMOKO AKAMA,
     MELISA ALKAN, YURI ALEXEEV, YURIKO AOKI, POOJA ARORA,
     TOSHIO ASADA, ANDREY ASADCHEV, KIM K. BALDRIDGE,
     PRADIPTA BANDYOPADHYAY, TAYLOR A. BARNES, MARIA BARYSZ,
     ROB BELL, JONATHAN BENTZ, COLLEEN BERTONI,
     JERRY A. BOATZ, BRETT BODE, KURT BRORSEN, KURT R. BRORSEN,
     LAIMUTIS BYTAUTAS, CALEB CARLIN, LAURA CARRINGTON,
     GALINA CHABAN, BENOIT CHAMPAGNE, WEI CHEN, MAHITO CHIBA,
     DAN CHIPMAN, CHEOL HO CHOI, TANNER CULPITT,
     DIPAYAN DATTA, PAUL DAY, ALBERT DEFUSCO,
     NUWAN DESILVA, J. EMILIANO DEUSTUA,
     TIM DUDLEY, MICHEL DUPUIS, STEVEN T. ELBERT,
     DMITRI FEDOROV, KATHERINE FERRERAS, MICHAEL FILATOV,
     ALEX FINDLATER,GRAHAM FLETCHER, MARK FREITAG,
     CHRISTIAN FRIEDL, DAVID GARMER, 
     IGOR S. GERASIMOV, KURT GLAESEMANN,
     MARK S. GORDON, JEFFREY GOUR, FENG LONG GU,
     EMILIE B. GUIDEZ, ANASTASIA GUNINA, SHARON HAMMES-SCHIFFER,
     MASATAKE HARUTA, KIMIHIKO HIRAO, YASUHIRO IKABATA,
     TZVETELIN IORDANOV, STEPHAN IRLE, KAZUYA ISHIMURA,
     JOE IVANIC, FRANK JENSEN, JAN H. JENSEN, VISVALDAS KAIRYS,
     MUNEAKI KAMIYA, MICHIO KATOUDA, NAOAKI KAWAKAMI, DAN KEMP,
     BERNARD KIRTMAN, KAZUO KITAURA, MARIUSZ KLOBUKOWSKI,
     MASATO KOBAYASHI, KONSTANTIN KOMAROV, PRAKASHAN KORAMBATH,
     JACEK KORCHOWIEC, SHIRO KOSEKI, KAROL KOWALSKI,
     JIMMY KROMANN, STANISLAW KUCHARSKI, HENRY KURTZ,
     SAROM SOK LEANG, SEUNGHOON LEE, HUI LI, SHUHUA LI, WEI LI,
     JESSE LUTZ, ALEKSANDR O. LYKHIN, MARCIN MAKOWSKI,
     JOANI MATO, NIKITA MATSUNAGA, BENEDETTA MENNUCCI,
     GRANT MERRILL, NORIYUKI MINEZAWA, VLADIMIR MIRONOV,
     EISAKU MIYOSHI, JOHN A. MONTGOMERY JR., HIROTOSHI MORI,
     JONATHAN MULLIN, MONIKA MUSIAL, SHIGERU NAGASE,
     TAKESHI NAGATA, HIROMI NAKAI, TAKAHITO NAKAJIMA,
     YUYA NAKAJIMA, HARUYUKI NAKANO, HIROYA NAKATA, SEAN NEDD,
     HEATHER NETZLOFF, KIET A. NGUYEN, YOSHIO NISHIMOTO,
     BOSILJKA NJEGIC, RYAN OLSON, MIKE PAK, ROBERTO PEVERATI,
     BUU PHAM, PIOTR PIECUCH, ANNA POMOGAEVA, DAVID POOLE,
     SPENCER PRUITT, OLIVIER QUINET, LUKE ROSKOP,
     KLAUS RUEDENBERG, ANDREW SAND, TOSAPORN SATTASATHUCHANA,
     NOZOMI SAWADA, MICHAEL W. SCHMIDT, PATRICK E. SCHNEIDER,
     JUNJI SEINO, PRACHI SHARMA, JUN SHEN, JIM SHOEMAKER,
     YINAN SHU, DEJUN SI, JONATHAN SKONE, LYUDMILA SLIPCHENKO,
     TONY SMITH, JIE SONG, MARK SPACKMAN, CASPER STEINMANN,
     WALT STEVENS, PEIFENG SU, SHUJUN SU, CHET SWALINA,
     CHINAMI TAKASHIMA, TETSUYA TAKETSUGU, ZHEN TAO,
     NANDUN THELLAMUREGE, SEIKEN TOKURA, JACOPO TOMASI,
     TSUGUKI TOUMA, TAKAO TSUNEDA, HIROAKI UMEDA,
     JORGE LUIS GALVEZ VALLEJO, YALI WANG, SIMON WEBB,
     AARON WEST, THERESA L. WINDUS, MARTA WLOCH,
     PENG XU, KIYOSHI YAGI, SUSUMU YANAGISAWA, YANG YANG,
     SOOHAENG YOO, TAKESHI YOSHIKAWA, FEDERICO ZAHARIEV,
     TOBY ZENG

  WHO ARE SUPPORTED BY THEIR INSTITUTION/UNIVERSITY/COMPANY/GROUP
  (IN ALPHABETICAL ORDER):

     EP ANALYTICS,
     FACULTES UNIVERSITAIRES NOTRE-DAME DE LA PAIX,
     INSTITUTE FOR MOLECULAR SCIENCE, IOWA STATE UNIVERSITY,
     JACKSON STATE UNIVERSITY, JOHANNES KEPLER UNIVERSITY LINZ,
     KYUNGPOOK NATIONAL UNIVERSITY
     KYUSHU UNIVERSITY, MICHIGAN STATE UNIVERSITY,
     MIE UNIVERSITY, THE MOLECULAR SCIENCES SOFTWARE INSTITUTE,
     MOSCOW STATE UNIVERSITY,
     N. COPERNICUS UNIVERSITY, NAGOYA UNIVERSITY,
     NANJING UNIVERSITY, NAT. INST. OF ADVANCED INDUSTRIAL
     SCIENCE AND TECHNOLOGY, NATIONAL INST. OF STANDARDS AND
     TECHNOLOGY, NESMEYANOV INSTITUTE OF ORGANOELEMENT COMPOUNDS
     OF RUSSIAN ACADEMY OF SCIENCES, OSAKA PREFECTURE UNIVERSITY,
     PENNSYLVANIA STATE UNIVERSITY, TOKYO INSTITUTE OF TECHNOLOGY,
     UNIVERSITY OF AARHUS, UNIVERSITY OF ALBERTA,
     UNIVERSITY OF CALIFORNIA AT SANTA BARBARA,
     UNIVERSITY OF COPENHAGEN, UNIVERSITY OF IOWA,
     UNIVERSITY OF MEMPHIS, UNIVERSITY OF MINNESOTA,
     UNIVERSITY OF NEBRASKA, UNIVERSITY OF NEW ENGLAND,
     UNIVERSITY OF NOTRE DAME, UNIVERSITY OF PISA,
     UNIVERSITY OF SILESIA, UNIVERSITY OF TOKYO,
     UNIVERSITY OF ZURICH, WASEDA UNIVERSITY,
     YALE UNIVERSITY

  GAMESS SOFTWARE MANAGEMENT TEAM FOR THIS RELEASE:
     MARK S. GORDON (TEAM LEAD),
     BRETT BODE (SENIOR ADVISOR),
     GIUSEPPE BARCA,
     COLLEEN BERTONI,
     KRISTOPHER KEIPERT (ADVISOR),
     SAROM S. LEANG (DEVELOPMENT LEAD),
     BUU PHAM,
     JACKSON HAYES (WEBSITE ADMINISTRATOR),
     PENG XU

 EXECUTION OF GAMESS BEGUN 22:49:48 29-AUG-2023    

            ECHO OF THE FIRST FEW INPUT CARDS -
 INPUT CARD> $contrl runtyp=energy scftyp=rhf cctyp=ip-eom2                                 
 INPUT CARD>         ispher=1 $end                                                          
 INPUT CARD> $system mwords=50 $end                                                         
 INPUT CARD> $basis gbasis=ccd $end                                                         
 INPUT CARD> $ccinp ncore=0 maxcc=100 $end                                                  
 INPUT CARD> $eominp minit=2 mult=2 nstate(1)=1,0,0,0 $end                                  
 INPUT CARD> $data                                                                          
 INPUT CARD>H2O / Re                                                                        
 INPUT CARD>Cnv 2                                                                           
 INPUT CARD>                                                                                
 INPUT CARD> O   8.0     0.000000    0.000000    -0.0180/2                                  
 INPUT CARD> H   1.0     0.000000    3.030526/2    -2.117796/2                              
 INPUT CARD> $end                                                                           
     50000000 WORDS OF MEMORY AVAILABLE

     BASIS OPTIONS
     -------------
     GBASIS=CCD          IGAUSS=       0      POLAR=NONE    
     NDFUNC=       0     NFFUNC=       0     DIFFSP=       F
     NPFUNC=       0      DIFFS=       F     BASNAM=        


     RUN TITLE
     ---------
 H2O / Re                                                                        

 THE POINT GROUP OF THE MOLECULE IS CNV     
 THE ORDER OF THE PRINCIPAL AXIS IS     2

 ATOM      ATOMIC                      COORDINATES (BOHR)
           CHARGE         X                   Y                   Z
 O           8.0     0.0000000000        0.0000000000       -0.0170075339
 H           1.0    -0.0000000000       -2.8634318693       -2.0010270689
 H           1.0     0.0000000000        2.8634318693       -2.0010270689

          INTERNUCLEAR DISTANCES (ANGS.)
          ------------------------------

                1 O          2 H          3 H     

   1 O       0.0000000    1.8434500 *  1.8434500 *
   2 H       1.8434500 *  0.0000000    3.0305260  
   3 H       1.8434500 *  3.0305260    0.0000000  

  * ... LESS THAN  3.000


     ATOMIC BASIS SET
     ----------------
 THE CONTRACTED PRIMITIVE FUNCTIONS HAVE BEEN UNNORMALIZED
 THE CONTRACTED BASIS FUNCTIONS ARE NOW NORMALIZED TO UNITY

  SHELL TYPE  PRIMITIVE        EXPONENT          CONTRACTION COEFFICIENT(S)

 O         

      1   S       1         11720.0000000    0.000709645947
      1   S       2          1759.0000000    0.005467272292
      1   S       3           400.8000000    0.027823118610
      1   S       4           113.7000000    0.104747739711
      1   S       5            37.0300000    0.282920846357
      1   S       6            13.2700000    0.448495238698
      1   S       7             5.0250000    0.270816885213
      1   S       8             1.0130000    0.015450291607

      2   S       9         11720.0000000   -0.000314443412
      2   S      10          1759.0000000   -0.002482137681
      2   S      11           400.8000000   -0.012316355382
      2   S      12           113.7000000   -0.050538917344
      2   S      13            37.0300000   -0.139384903316
      2   S      14            13.2700000   -0.325077494818
      2   S      15             5.0250000   -0.229848307588
      2   S      16             1.0130000    1.095379346788

      3   S      17             0.3023000    1.000000000000

      4   P      18            17.7000000    0.062679166282
      4   P      19             3.8540000    0.333536565879
      4   P      20             1.0460000    0.741239641640

      5   P      21             0.2753000    1.000000000000

      6   D      22             1.1850000    1.000000000000

 H         

     10   S      23            13.0100000    0.033498726390
     10   S      24             1.9620000    0.234800801174
     10   S      25             0.4446000    0.813682957883

     11   S      26             0.1220000    1.000000000000

     12   P      27             0.7270000    1.000000000000

 TOTAL NUMBER OF BASIS SET SHELLS             =   12
 NUMBER OF CARTESIAN GAUSSIAN BASIS FUNCTIONS =   25
 NOTE: THIS RUN WILL RESTRICT THE MO VARIATION SPACE TO SPHERICAL HARMONICS.
 THE NUMBER OF ORBITALS KEPT IN THE VARIATIONAL SPACE WILL BE PRINTED LATER.
 NUMBER OF ELECTRONS                          =   10
 CHARGE OF MOLECULE                           =    0
 SPIN MULTIPLICITY                            =    1
 NUMBER OF OCCUPIED ORBITALS (ALPHA)          =    5
 NUMBER OF OCCUPIED ORBITALS (BETA )          =    5
 TOTAL NUMBER OF ATOMS                        =    3
 THE NUCLEAR REPULSION ENERGY IS        4.7675452887

     $CONTRL OPTIONS
     ---------------
 SCFTYP=ROHF         RUNTYP=ENERGY       EXETYP=RUN     
 MPLEVL=       0     CITYP =NONE         CCTYP =IP-EOM2      VBTYP =NONE    
 DFTTYP=NONE         TDDFT =NONE    
 MULT  =       1     ICHARG=       0     NZVAR =       0     COORD =UNIQUE  
 PP    =NONE         RELWFN=NONE         LOCAL =NONE         NUMGRD=       F
 ISPHER=       1     NOSYM =       0     MAXIT =      30     UNITS =ANGS    
 PLTORB=       F     MOLPLT=       F     AIMPAC=       F     FRIEND=        
 NPRINT=       7     IREST =       0     GEOM  =INPUT   
 NORMF =       0     NORMP =       0     ITOL  =      20     ICUT  =       9
 INTTYP=BEST         GRDTYP=BEST         QMTTOL= 1.0E-06

     $SYSTEM OPTIONS
     ---------------
  REPLICATED MEMORY=    50000000 WORDS (ON EVERY NODE).
 DISTRIBUTED MEMDDI=           0 MILLION WORDS IN AGGREGATE,
 MEMDDI DISTRIBUTED OVER   1 PROCESSORS IS           0 WORDS/PROCESSOR.
 TOTAL MEMORY REQUESTED ON EACH PROCESSOR=    50000000 WORDS.
 TIMLIM=      525600.00 MINUTES, OR     365.0 DAYS.
 PARALL= F  BALTYP=  DLB     KDIAG=    0  COREFL= F
 MXSEQ2=     300 MXSEQ3=     150  mem10=         0  mem22=         0

          ----------------
          PROPERTIES INPUT
          ----------------

     MOMENTS            FIELD           POTENTIAL          DENSITY
 IEMOM =       1   IEFLD =       0   IEPOT =       0   IEDEN =       0
 WHERE =COMASS     WHERE =NUCLEI     WHERE =NUCLEI     WHERE =NUCLEI  
 OUTPUT=BOTH       OUTPUT=BOTH       OUTPUT=BOTH       OUTPUT=BOTH    
 IEMINT=       0   IEFINT=       0                     IEDINT=       0
                                                       MORB  =       0
          EXTRAPOLATION IN EFFECT
          SOSCF IN EFFECT
 ORBITAL PRINTING OPTION: NPREO=     1    25     2     1

     -------------------------------
     INTEGRAL TRANSFORMATION OPTIONS
     -------------------------------
     NWORD  =            0
     CUTTRF = 1.0E-09     MPTRAN =       0
     DIRTRF =       F     AOINTS =DUP     

          ----------------------
          INTEGRAL INPUT OPTIONS
          ----------------------
 NOPK  =       1 NORDER=       0 SCHWRZ=       F

     -------------------------------------------
     EQUATION OF MOTION INPUT FOR EXCITED STATES
     -------------------------------------------
     OPTIONS FOR STATE SELECTION:
     GROUP =C2V       NSTATE= 1, 0, 0, 0, 0, 0, 0, 0    IROOT = 1, 1
     OPTIONS FOR THE EOM-CCSD:
     MEOM  =       0  MAXEOM=      50  MICEOM=      80  CVGEOM= 1.0E-04
     OPTIONS FOR EOM-CCSD WITH ROHF REFERENCES:
     JREST =       0  MULT =       2
     OPTIONS FOR PROPERTIES:
     CCPRP =       F  CCPRPE =       F
     OPTIONS FOR INITIAL GUESSES:
     MINIT =       2  MACT =       0  NOACT =       0  NUACT =       0
     OPTIONS FOR EA-EOM AND IP-EOM CALCULATIONS:
     MULT  =       2  JREST =       0  NACTA =       0  NACTB =       0
     NO DOUBLE EXCITATIONS WILL BE INCLUDED IN THE INITIAL GUESS

     ------------------------------------------
     THE POINT GROUP IS CNV, NAXIS= 2, ORDER= 4
     ------------------------------------------

 -- VARIATIONAL SPACE WILL BE RESTRICTED TO PURE SPHERICAL HARMONICS ONLY --
 AFTER EXCLUDING CONTAMINANT COMBINATIONS FROM THE CARTESIAN GAUSSIAN BASIS
 SET, THE NUMBER OF SPHERICAL HARMONICS KEPT IN THE VARIATION SPACE IS   24

     DIMENSIONS OF THE SYMMETRY SUBSPACES ARE
 A1  =   11     A2  =    2     B1  =    4     B2  =    7

 ..... DONE SETTING UP THE RUN .....
 STEP CPU TIME =     0.02 TOTAL CPU TIME =          0.0 (      0.0 MIN)
 TOTAL WALL CLOCK TIME=          0.0 SECONDS, CPU UTILIZATION IS    99.95%

          ********************
          1 ELECTRON INTEGRALS
          ********************
 ...... END OF ONE-ELECTRON INTEGRALS ......
 STEP CPU TIME =     0.00 TOTAL CPU TIME =          0.0 (      0.0 MIN)
 TOTAL WALL CLOCK TIME=          0.0 SECONDS, CPU UTILIZATION IS    99.95%

          -------------
          GUESS OPTIONS
          -------------
          GUESS =HUCKEL            NORB  =       0          NORDER=       0
          MIX   =       F          PRTMO =       F          PUNMO =       F
          TOLZ  = 1.0E-08          TOLE  = 1.0E-05
          SYMDEN=       F          PURIFY=       F

 INITIAL GUESS ORBITALS GENERATED BY HUCKEL   ROUTINE.
 HUCKEL GUESS REQUIRES      7030 WORDS.

 STATISTICS FOR GENERATION OF SYMMETRY ORBITAL -Q- MATRIX
 NUMBER OF CARTESIAN ATOMIC ORBITALS=         25
 NUMBER OF SPHERICAL CONTAMINANTS DROPPED=     1
 NUMBER OF LINEARLY DEPENDENT MOS DROPPED=     0
 TOTAL NUMBER OF MOS IN VARIATION SPACE=      24

 SYMMETRIES FOR INITIAL GUESS ORBITALS FOLLOW.  ALPHA SET(S).
     5 ORBITALS ARE OCCUPIED (    1 CORE ORBITALS).
     2=A1       3=B2       4=A1       5=B1       6=A1       7=B2       8=A1  
     9=A1      10=A1      11=A1      12=A1      13=A1      14=A1      15=A2  

 SYMMETRIES FOR INITIAL GUESS ORBITALS FOLLOW.   BETA SET(S).
     5 ORBITALS ARE OCCUPIED (    1 CORE ORBITALS).
     2=A1       3=B2       4=A1       5=B1       6=A1       7=B2       8=A1  
     9=A1      10=A1      11=A1      12=A1      13=A1      14=A1      15=A2  
 ...... END OF INITIAL ORBITAL SELECTION ......
 STEP CPU TIME =     0.01 TOTAL CPU TIME =          0.0 (      0.0 MIN)
 TOTAL WALL CLOCK TIME=          0.0 SECONDS, CPU UTILIZATION IS    99.31%

                    ----------------------
                    AO INTEGRAL TECHNOLOGY
                    ----------------------
     S,P,L SHELL ROTATED AXIS INTEGRALS, REPROGRAMMED BY
        KAZUYA ISHIMURA (IMS) AND JOSE SIERRA (SYNSTAR).
     S,P,D,L SHELL ROTATED AXIS INTEGRALS PROGRAMMED BY
        KAZUYA ISHIMURA (INSTITUTE FOR MOLECULAR SCIENCE).
     S,P,D,F,G SHELL TO TOTAL QUARTET ANGULAR MOMENTUM SUM 5,
        ERIC PROGRAM BY GRAHAM FLETCHER (ELORET AND NASA ADVANCED
        SUPERCOMPUTING DIVISION, AMES RESEARCH CENTER).
     S,P,D,F,G,L SHELL GENERAL RYS QUADRATURE PROGRAMMED BY
        MICHEL DUPUIS (PACIFIC NORTHWEST NATIONAL LABORATORY).

          --------------------
          2 ELECTRON INTEGRALS
          --------------------

 THE -PK- OPTION IS OFF, THE INTEGRALS ARE NOT IN SUPERMATRIX FORM.
 STORING   15000 INTEGRALS/RECORD ON DISK, USING 12 BYTES/INTEGRAL.
 TWO ELECTRON INTEGRAL EVALUATION REQUIRES   90474 WORDS OF MEMORY.
 II,JST,KST,LST =  1  1  1  1 NREC =         1 INTLOC =    1
 II,JST,KST,LST =  2  1  1  1 NREC =         1 INTLOC =    2
 II,JST,KST,LST =  3  1  1  1 NREC =         1 INTLOC =    7
 II,JST,KST,LST =  4  1  1  1 NREC =         1 INTLOC =   22
 II,JST,KST,LST =  5  1  1  1 NREC =         1 INTLOC =   67
 II,JST,KST,LST =  6  1  1  1 NREC =         1 INTLOC =  214
 II,JST,KST,LST =  7  1  1  1 NREC =         1 INTLOC = 1189
 II,JST,KST,LST =  8  1  1  1 NREC =         1 INTLOC = 1189
 II,JST,KST,LST =  9  1  1  1 NREC =         1 INTLOC = 1189
 II,JST,KST,LST = 10  1  1  1 NREC =         1 INTLOC = 1189
 II,JST,KST,LST = 11  1  1  1 NREC =         1 INTLOC = 2524
 II,JST,KST,LST = 12  1  1  1 NREC =         1 INTLOC = 4462
 TOTAL NUMBER OF NONZERO TWO-ELECTRON INTEGRALS =               13837
          1 INTEGRAL RECORDS WERE STORED ON DISK FILE  8.
  ...... END OF TWO-ELECTRON INTEGRALS .....
 STEP CPU TIME =     0.03 TOTAL CPU TIME =          0.1 (      0.0 MIN)
 TOTAL WALL CLOCK TIME=          0.1 SECONDS, CPU UTILIZATION IS    97.39%

          ---------------------------
                 ROHF SCF CALCULATION
          ---------------------------

     NUCLEAR ENERGY =         4.7675452887
     MAXIT = 30     NPUNCH=  2     MULT=  1
     EXTRAP=T  DAMP=F  SHIFT=F  RSTRCT=F  DIIS=F  SOSCF=T
     DENSITY MATRIX CONV=  1.00E-06
     ROHF CANONICALIZATION PARAMETERS
             C-C     O-O     V-V
     ALPHA -0.5000  0.5000  1.5000
     BETA   1.5000  0.5000 -0.5000
     SOSCF WILL OPTIMIZE      95 ORBITAL ROTATION ANGLES. SOGTOL= 2.500E-01
     MEMORY REQUIRED FOR UHF/ROHF ITERS=     36570 WORDS.

 ITER EX      TOTAL ENERGY        E CHANGE  DENSITY CHANGE    ORB. GRAD 
   1  0      -75.3619824900   -75.3619824900   0.461372463   0.000000000
          ---------------START SECOND ORDER SCF---------------
   2  1      -75.4137594439    -0.0517769538   0.403831245   0.203582184
   3  2      -75.3590146160     0.0547448278   0.220082333   0.212065203
   4  3      -75.6226997706    -0.2636851546   0.072931506   0.027431697
   5  4      -75.6276971205    -0.0049973499   0.011723235   0.011194985
   6  5      -75.6282808918    -0.0005837713   0.006865251   0.002692738
   7  6      -75.6283938787    -0.0001129868   0.018936061   0.001911256
   8  7      -75.6285779956    -0.0001841169   0.009948171   0.002169979
   9  8      -75.6286136068    -0.0000356113   0.002991418   0.001007766
  10  9      -75.6286184161    -0.0000048092   0.000320695   0.000159466
  11 10      -75.6286185797    -0.0000001637   0.000082280   0.000028943
  12 11      -75.6286185842    -0.0000000045   0.000014817   0.000007480
  13 12      -75.6286185844    -0.0000000002   0.000003362   0.000001323
  14 13      -75.6286185845    -0.0000000000   0.000000526   0.000000146
  15 14      -75.6286185845    -0.0000000000   0.000000041   0.000000026

 ROHF HAS CONVERGED, NOW COMPUTING EXACT ALPHA,BETA FOCK MATRICES
 FOR USE DURING THE COUPLED CLUSTER CALCULATION THAT FOLLOWS.

          -----------------
          DENSITY CONVERGED
          -----------------
     TIME TO FORM FOCK OPERATORS=       0.0 SECONDS (       0.0 SEC/ITER)
     TIME TO SOLVE SCF EQUATIONS=       0.0 SECONDS (       0.0 SEC/ITER)

 FINAL ROHF ENERGY IS      -75.6286185845 AFTER  15 ITERATIONS

          --------------------
          SPIN SZ   =    0.000
          S-SQUARED =    0.000
          --------------------

          ------------
          EIGENVECTORS
          ------------

                      1          2          3          4          5
                  -20.6630    -1.2004    -0.5065    -0.4410    -0.4302
                     A1         A1         B1         B2         A1  
    1  O  1  S    1.000449  -0.001823  -0.000000  -0.000000   0.008709
    2  O  1  S   -0.000341   0.497635  -0.000000  -0.000000   0.081480
    3  O  1  S   -0.002808   0.565552  -0.000000  -0.000000   0.104536
    4  O  1  X    0.000000  -0.000000   0.670581  -0.000000   0.000000
    5  O  1  Y    0.000000  -0.000000  -0.000000   0.426693   0.000000
    6  O  1  Z   -0.000844   0.006133  -0.000000  -0.000000   0.477069
    7  O  1  X    0.000000  -0.000000   0.477636  -0.000000   0.000000
    8  O  1  Y    0.000000  -0.000000  -0.000000   0.349951   0.000000
    9  O  1  Z    0.000551  -0.003526  -0.000000  -0.000000   0.391124
   10  O  1 XX    0.000374  -0.000033  -0.000000  -0.000000   0.008722
   11  O  1 YY   -0.000249   0.000545  -0.000000  -0.000000  -0.003284
   12  O  1 ZZ   -0.000124  -0.000512  -0.000000  -0.000000  -0.005438
   13  O  1 XY    0.000000  -0.000000  -0.000000  -0.000000   0.000000
   14  O  1 XZ    0.000000  -0.000000  -0.005638  -0.000000   0.000000
   15  O  1 YZ    0.000000  -0.000000  -0.000000  -0.015818   0.000000
   16  H  2  S    0.000055   0.031704  -0.000000  -0.227641  -0.201106
   17  H  2  S    0.000389   0.020441  -0.000000  -0.237754  -0.214439
   18  H  2  X    0.000000  -0.000000   0.006868  -0.000000   0.000000
   19  H  2  Y    0.000242   0.004902  -0.000000  -0.009330  -0.010583
   20  H  2  Z    0.000138   0.003194  -0.000000  -0.009671  -0.000701
   21  H  3  S    0.000055   0.031704  -0.000000   0.227641  -0.201106
   22  H  3  S    0.000389   0.020441  -0.000000   0.237754  -0.214439
   23  H  3  X    0.000000  -0.000000   0.006868  -0.000000   0.000000
   24  H  3  Y   -0.000242  -0.004902  -0.000000  -0.009330   0.010583
   25  H  3  Z    0.000138   0.003194  -0.000000   0.009671  -0.000701

                      6          7          8          9         10
                   -0.0214     0.0294     0.6017     0.6465     1.1481
                     A1         B2         A1         B2         B1  
    1  O  1  S    0.008177  -0.000000  -0.028943   0.000000   0.000000
    2  O  1  S   -0.071492  -0.000000  -0.023914   0.000000   0.000000
    3  O  1  S   -0.231966  -0.000000   0.328517   0.000000   0.000000
    4  O  1  X   -0.000000  -0.000000   0.000000   0.000000  -0.874750
    5  O  1  Y   -0.000000   0.436212   0.000000  -0.117179   0.000000
    6  O  1  Z    0.390571  -0.000000   0.105033   0.000000   0.000000
    7  O  1  X   -0.000000  -0.000000   0.000000   0.000000   0.953656
    8  O  1  Y   -0.000000   0.479317   0.000000   0.233481   0.000000
    9  O  1  Z    0.396412  -0.000000  -0.149962   0.000000   0.000000
   10  O  1 XX   -0.002317  -0.000000  -0.013901   0.000000   0.000000
   11  O  1 YY    0.005891  -0.000000   0.014778   0.000000   0.000000
   12  O  1 ZZ   -0.003574  -0.000000  -0.000877   0.000000   0.000000
   13  O  1 XY   -0.000000  -0.000000   0.000000   0.000000   0.000000
   14  O  1 XZ   -0.000000  -0.000000   0.000000   0.000000  -0.005329
   15  O  1 YZ   -0.000000   0.002922   0.000000  -0.023024   0.000000
   16  H  2  S    0.239690   0.234376   0.907528  -0.928579   0.000000
   17  H  2  S    0.430567   0.465189  -0.878999   1.012334   0.000000
   18  H  2  X   -0.000000  -0.000000   0.000000   0.000000   0.230423
   19  H  2  Y   -0.017632  -0.015490   0.006233  -0.037978   0.000000
   20  H  2  Z   -0.005403  -0.016429   0.016220  -0.011978   0.000000
   21  H  3  S    0.239690  -0.234376   0.907528   0.928579   0.000000
   22  H  3  S    0.430567  -0.465189  -0.878999  -1.012334   0.000000
   23  H  3  X   -0.000000  -0.000000   0.000000   0.000000   0.230423
   24  H  3  Y    0.017632  -0.015490  -0.006233  -0.037978   0.000000
   25  H  3  Z   -0.005403   0.016429   0.016220   0.011978   0.000000

                     11         12         13         14         15
                    1.1884     1.2090     1.2958     1.4523     1.4557
                     A1         B2         A1         A2         B2  
    1  O  1  S   -0.077636   0.000000   0.415807  -0.000000   0.000000
    2  O  1  S   -0.205776   0.000000   1.051453  -0.000000   0.000000
    3  O  1  S    0.180554   0.000000  -0.996833  -0.000000   0.000000
    4  O  1  X    0.000000   0.000000  -0.000000  -0.000000   0.000000
    5  O  1  Y    0.000000   0.825016  -0.000000  -0.000000   0.048878
    6  O  1  Z    0.833984   0.000000   0.284734  -0.000000   0.000000
    7  O  1  X    0.000000   0.000000  -0.000000  -0.000000   0.000000
    8  O  1  Y    0.000000  -0.778743  -0.000000  -0.000000   0.002190
    9  O  1  Z   -0.818596   0.000000  -0.375941  -0.000000   0.000000
   10  O  1 XX   -0.013710   0.000000   0.036474  -0.000000   0.000000
   11  O  1 YY    0.007912   0.000000  -0.045541  -0.000000   0.000000
   12  O  1 ZZ    0.005799   0.000000   0.009067  -0.000000   0.000000
   13  O  1 XY    0.000000   0.000000  -0.000000  -0.036256   0.000000
   14  O  1 XZ    0.000000   0.000000  -0.000000  -0.000000   0.000000
   15  O  1 YZ    0.000000   0.025270  -0.000000  -0.000000   0.050172
   16  H  2  S   -0.120453  -0.171060  -0.019706  -0.000000  -0.066619
   17  H  2  S   -0.023531   0.002469   0.075541  -0.000000   0.082869
   18  H  2  X    0.000000   0.000000  -0.000000   0.706307   0.000000
   19  H  2  Y    0.306920   0.166655  -0.215111  -0.000000   0.555492
   20  H  2  Z   -0.019289   0.279864  -0.378765  -0.000000  -0.433555
   21  H  3  S   -0.120453   0.171060  -0.019706  -0.000000   0.066619
   22  H  3  S   -0.023531  -0.002469   0.075541  -0.000000  -0.082869
   23  H  3  X    0.000000   0.000000  -0.000000  -0.706307   0.000000
   24  H  3  Y   -0.306920   0.166655   0.215111  -0.000000   0.555492
   25  H  3  Z   -0.019289  -0.279864  -0.378765  -0.000000   0.433555

                     16         17         18         19         20
                    1.5020     1.5228     1.7966     2.0098     2.9582
                     A1         B1         B2         A1         A1  
    1  O  1  S    0.169166   0.000000   0.000000  -0.511704   0.009688
    2  O  1  S    0.411722   0.000000   0.000000  -1.187901   0.021629
    3  O  1  S   -0.432191   0.000000   0.000000   1.402167  -0.027508
    4  O  1  X    0.000000   0.351833   0.000000  -0.000000  -0.000000
    5  O  1  Y    0.000000   0.000000  -0.575893  -0.000000  -0.000000
    6  O  1  Z    0.328521   0.000000   0.000000   0.302683   0.003671
    7  O  1  X    0.000000  -0.461622   0.000000  -0.000000  -0.000000
    8  O  1  Y    0.000000   0.000000   0.963624  -0.000000  -0.000000
    9  O  1  Z   -0.396380   0.000000   0.000000  -0.545892   0.007217
   10  O  1 XX    0.000098   0.000000   0.000000   0.132658  -0.406357
   11  O  1 YY    0.034909   0.000000   0.000000  -0.129813  -0.587389
   12  O  1 ZZ   -0.035007   0.000000   0.000000  -0.002845   0.993745
   13  O  1 XY    0.000000   0.000000   0.000000  -0.000000  -0.000000
   14  O  1 XZ    0.000000  -0.025959   0.000000  -0.000000  -0.000000
   15  O  1 YZ    0.000000   0.000000   0.181245  -0.000000  -0.000000
   16  H  2  S   -0.072935   0.000000  -0.002365   0.010176   0.001615
   17  H  2  S    0.065516   0.000000   0.273606  -0.278763   0.006883
   18  H  2  X    0.000000   0.672262   0.000000  -0.000000  -0.000000
   19  H  2  Y   -0.349228   0.000000   0.428093  -0.534768  -0.005177
   20  H  2  Z    0.547472   0.000000   0.511921  -0.250091   0.040036
   21  H  3  S   -0.072935   0.000000   0.002365   0.010176   0.001615
   22  H  3  S    0.065516   0.000000  -0.273606  -0.278763   0.006883
   23  H  3  X    0.000000   0.672262   0.000000  -0.000000  -0.000000
   24  H  3  Y    0.349228   0.000000   0.428093   0.534768   0.005177
   25  H  3  Z    0.547472   0.000000  -0.511921  -0.250091   0.040036

                     21         22         23         24
                    2.9639     2.9658     3.0162     3.0506
                     A2         B1         A1         B2  
    1  O  1  S    0.000000  -0.000000   0.075560  -0.000000
    2  O  1  S    0.000000  -0.000000   0.167689  -0.000000
    3  O  1  S    0.000000  -0.000000  -0.221656  -0.000000
    4  O  1  X    0.000000   0.008767  -0.000000  -0.000000
    5  O  1  Y    0.000000  -0.000000  -0.000000   0.110705
    6  O  1  Z    0.000000  -0.000000  -0.054470  -0.000000
    7  O  1  X    0.000000  -0.005335  -0.000000  -0.000000
    8  O  1  Y    0.000000  -0.000000  -0.000000  -0.220040
    9  O  1  Z    0.000000  -0.000000   0.111058  -0.000000
   10  O  1 XX    0.000000  -0.000000   0.904807  -0.000000
   11  O  1 YY    0.000000  -0.000000  -0.798748  -0.000000
   12  O  1 ZZ    0.000000  -0.000000  -0.106059  -0.000000
   13  O  1 XY    0.999429  -0.000000  -0.000000  -0.000000
   14  O  1 XZ    0.000000   0.999675  -0.000000  -0.000000
   15  O  1 YZ    0.000000  -0.000000  -0.000000   0.986079
   16  H  2  S    0.000000  -0.000000   0.024724  -0.027811
   17  H  2  S    0.000000  -0.000000   0.054004  -0.085059
   18  H  2  X    0.034920   0.025237  -0.000000  -0.000000
   19  H  2  Y    0.000000  -0.000000   0.124007  -0.165986
   20  H  2  Z    0.000000  -0.000000   0.092165  -0.114269
   21  H  3  S    0.000000  -0.000000   0.024724   0.027811
   22  H  3  S    0.000000  -0.000000   0.054004   0.085059
   23  H  3  X   -0.034920   0.025237  -0.000000  -0.000000
   24  H  3  Y    0.000000  -0.000000  -0.124007  -0.165986
   25  H  3  Z    0.000000  -0.000000   0.092165   0.114269
 ...... END OF ROHF CALCULATION ......
 STEP CPU TIME =     0.02 TOTAL CPU TIME =          0.1 (      0.0 MIN)
 TOTAL WALL CLOCK TIME=          0.1 SECONDS, CPU UTILIZATION IS    97.97%

     ----------------------------------------------------------------
     PROPERTY VALUES FOR THE ROHF  SELF-CONSISTENT FIELD WAVEFUNCTION
     ----------------------------------------------------------------

          ---------------------------------------
          MULLIKEN AND LOWDIN POPULATION ANALYSES
          ---------------------------------------

          MULLIKEN SPHERICAL HARMONIC POPULATIONS
       ATOM           S       P       D      F      G      H      I    TOTAL
    1 O             1.99    2.19    0.00   0.00   0.00   0.00   0.00    4.18
    2 H             0.41    0.00    0.00   0.00   0.00   0.00   0.00    0.41
    3 H             0.41    0.00    0.00   0.00   0.00   0.00   0.00    0.41

          MULLIKEN SPHERICAL HARMONIC POPULATIONS
       ATOM           S       P       D      F      G      H      I    TOTAL
    1 O             1.99    2.19    0.00   0.00   0.00   0.00   0.00    4.18
    2 H             0.41    0.00    0.00   0.00   0.00   0.00   0.00    0.41
    3 H             0.41    0.00    0.00   0.00   0.00   0.00   0.00    0.41

     ATOMIC SPIN POPULATION (ALPHA MINUS BETA)
       ATOM         MULL.POP.                    LOW.POP.
    1 O             0.000000                     0.000000
    2 H             0.000000                     0.000000
    3 H             0.000000                     0.000000

               ----- POPULATIONS IN EACH AO -----
                             MULLIKEN      LOWDIN
              1  O  1  S      2.00089     1.91269
              2  O  1  S      0.91619     0.68697
              3  O  1  S      1.05823     0.68377
              4  O  1  X      1.22054     1.19075
              5  O  1  Y      0.54891     0.51895
              6  O  1  Z      0.66657     0.64093
              7  O  1  X      0.77826     0.80732
              8  O  1  Y      0.56057     0.59595
              9  O  1  Z      0.60787     0.63288
             10  O  1 XX      0.00006     0.22249
             11  O  1 YY      0.00033     0.21869
             12  O  1 ZZ      0.00000     0.21856
             13  O  1 XY      0.00006     0.00000
             14  O  1 XZ      0.00134     0.00006
             15  O  1 YZ      0.00000     0.00140
             16  H  2  S      0.38119     0.37604
             17  H  2  S      0.43316     0.44713
             18  H  2  X      0.00057     0.00093
             19  H  2  Y      0.00348     0.00678
             20  H  2  Z      0.00169     0.00341
             21  H  3  S      0.38119     0.37604
             22  H  3  S      0.43316     0.44713
             23  H  3  X      0.00057     0.00093
             24  H  3  Y      0.00348     0.00678
             25  H  3  Z      0.00169     0.00341

          ----- MULLIKEN ATOMIC OVERLAP POPULATIONS -----
          (OFF-DIAGONAL ELEMENTS NEED TO BE MULTIPLIED BY 2)

             1           2           3

    1    8.0345050
    2    0.1626579   0.6613250
    3    0.1626579  -0.0038933   0.6613250

          TOTAL MULLIKEN AND LOWDIN ATOMIC POPULATIONS
       ATOM         MULL.POP.    CHARGE          LOW.POP.     CHARGE
    1 O             8.359821   -0.359821         8.331411   -0.331411
    2 H             0.820090    0.179910         0.834294    0.165706
    3 H             0.820090    0.179910         0.834294    0.165706

          MULLIKEN SPHERICAL HARMONIC POPULATIONS
       ATOM           S       P       D      F      G      H      I    TOTAL
    1 O             3.98    4.38    0.00   0.00   0.00   0.00   0.00    8.36
    2 H             0.81    0.01    0.00   0.00   0.00   0.00   0.00    0.82
    3 H             0.81    0.01    0.00   0.00   0.00   0.00   0.00    0.82

          -------------------------------
          BOND ORDER AND VALENCE ANALYSIS     BOND ORDER THRESHOLD=0.050
          -------------------------------

                   BOND                       BOND                       BOND
  ATOM PAIR DIST  ORDER      ATOM PAIR DIST  ORDER      ATOM PAIR DIST  ORDER
    1   2  1.843  0.962        1   3  1.843  0.962

                       TOTAL       BONDED        FREE
      ATOM            VALENCE     VALENCE     VALENCE
    1 O                 1.923       1.923      -0.000
    2 H                 0.967       0.967      -0.000
    3 H                 0.967       0.967      -0.000

          -----------------------------------------
          ATOMIC SPIN DENSITY AT THE NUCLEUS (A.U.)
          -----------------------------------------
                            SPIN DENS    ALPHA DENS     BETA DENS
    1  O            8.0     0.0000000     149.24487     149.24487
    2  H            1.0     0.0000000       0.08455       0.08455
    3  H            1.0     0.0000000       0.08455       0.08455

          ---------------------
          ELECTROSTATIC MOMENTS
          ---------------------

 POINT   1           X           Y           Z (BOHR)    CHARGE
                -0.000000    0.000000   -0.239049        0.00 (A.U.)
         DX          DY          DZ         /D/  (DEBYE)
    -0.000000    0.000000   -1.976796    1.976796
 ...... END OF PROPERTY EVALUATION ......
 STEP CPU TIME =     0.01 TOTAL CPU TIME =          0.1 (      0.0 MIN)
 TOTAL WALL CLOCK TIME=          0.1 SECONDS, CPU UTILIZATION IS    98.11%

     ---------------------------
     COUPLED CLUSTER CALCULATION
     ---------------------------
 CCTYP                        =IP-EOM2 
 TOTAL NUMBER OF MOS          =    24
 NUMBER OF OCCUPIED MOS       =     5
 NUMBER OF FROZEN CORE MOS    =     0
 NUMBER OF FROZEN VIRTUAL MOS =     0
 MAXIMUM CC ITERATIONS        =   100
 MAXIMUM DIIS ITERATIONS      =    -1
 CONVERGENCE CRITERION FOR CC =     7
 AMPLITUDE ACCURACY THRESHOLD = 0.0E+00

     --------------------------------------------
     PARTIAL TWO ELECTRON INTEGRAL TRANSFORMATION
     --------------------------------------------

 NUMBER OF CORE MOLECULAR ORBITALS     =    0
 NUMBER OF OCCUPIED MOLECULAR ORBITALS =   24
 TOTAL NUMBER OF MOLECULAR ORBITALS    =   24
 TOTAL NUMBER OF ATOMIC ORBITALS       =   25
 THRESHOLD FOR KEEPING TRANSFORMED 2E- INTEGRALS = 1.000E-09
 AO INTEGRALS WILL BE READ IN FROM DISK...

 PLAN A: REQUIREMENTS FOR FULLY IN-MEMORY TRANSFORMATION:
 # OF WORDS AVAILABLE =             49999999
 # OF WORDS NEEDED    =               258177

 CHOOSING IN MEMORY PARTIAL TRANSFORMATION...
 TOTAL NUMBER OF TRANSFORMED 2E- INTEGRALS KEPT =        12419
 ... END OF INTEGRAL TRANSFORMATION ...
 STEP CPU TIME =     0.01 TOTAL CPU TIME =          0.1 (      0.0 MIN)
 TOTAL WALL CLOCK TIME=          0.1 SECONDS, CPU UTILIZATION IS    98.31%

   ------------------------------------------------------
   OPEN-SHELL COUPLED-CLUSTER PROGRAM:
   M. WLOCH, J.R. GOUR, J. SHEN, J.E. DEUSTUA, P. PIECUCH
   ------------------------------------------------------

 ***************************************************************
 THE FOLLOWING PAPERS SHOULD BE CITED WHEN USING OPEN-SHELL CCSD
 AND/OR CR-CCL COUPLED-CLUSTER OPTIONS:
 P. PIECUCH AND M. WLOCH,
   J. CHEM. PHYS. 123, 224105/1-10 (2005).
 M. WLOCH, J.R. GOUR, AND P. PIECUCH,
   J. PHYS. CHEM. A, 111, 11359-11382 (2007).

 THE FOLLOWING PAPERS SHOULD BE CITED IF USING THE EA-EOMCC OR IP-EOMCC OPTIONS:
 J. R. GOUR, P. PIECUCH, AND M. WLOCH,
   J. CHEM. PHYS. 123, 134113/1-14 (2005).
 J. R. GOUR AND P. PIECUCH,
   J. CHEM. PHYS. 125, 234107/1-17 (2006).

 THE FOLLOWING PAPERS SHOULD BE CITED IF USING THE CCSDt AND CC(t;3) OPTIONS:
 J. SHEN AND P. PIECUCH, CHEM. PHYS. 401, 180-202 (2012);
 J. SHEN AND P. PIECUCH, J. CHEM. PHYS. 136, 144104-1 - 144104-16 (2012).
 ***************************************************************

 ROHF REFERENCE STATE WILL BE USED, MULTIPLICITY=  1

              ------------------------------
              OPEN SHELL CC INPUT PARAMETERS
              ------------------------------
     CC SPIN MULTIPLICITY (MULT IN $CCINP)    =    1
     IMPLYING NO. OF OCCUP. ALPHA =    5, PLUS   0 FROZEN CORES
              NO. OF OCCUP.  BETA =    5, PLUS   0 FROZEN CORES
              NO. OF VIRT.  ALPHA =   19
              NO. OF VIRT.   BETA =   19
     MAX.NO. OF CCSD AND LAMBDA ITERS (MAXCC) =  100
     CCSD AND LAMBDA CONVERGENCE (FROM ICONV) =   1.000E-07
     CCSD EQUATION RESTART OPTION (KREST)     =    0
     CCSD DIIS MICROITERATIONS (KMICRO)       =    6
     LAMDA EQUATION RESTART OPTION (LREST)    =    0
     LAMBDA DIIS MICROITERATIONS (LMICRO)     =    5
     MM(2,3) CODE SELECTION (IOPMET)          =    0

 MEMORY NEEDED BY FOCK PREPARATION   :         4251 WORDS
 MEMORY NEEDED BY INT. PASS 1        :       104550 WORDS
 MEMORY NEEDED BY INT. PASS 2        :       167180 WORDS
 MEMORY NEEDED BY INT. PASS 3,...,  6:       132885 WORDS
 PASS=  1, WILL PROCESS [OO|OO], [VO|OO], [VV|OO], AND [VO|VO] INTEGRALS.
           WROTE            625 WORDS OF <OA OA||OA OA> INTS TO FILE  74
           WROTE            625 WORDS OF <OB OB||OB OB> INTS TO FILE  75
           WROTE            625 WORDS OF <OA OB||OA OB> INTS TO FILE  76
           WROTE           2375 WORDS OF <VA OA||OA OA> INTS TO FILE  77
           WROTE           2375 WORDS OF <VB OB||OB OB> INTS TO FILE  78
           WROTE           2375 WORDS OF <VA OB||OA OB> INTS TO FILE  79
           WROTE           2375 WORDS OF <OA VB||OA OB> INTS TO FILE  80
           WROTE           9025 WORDS OF (VA OA  VA OA) INTS TO FILE  81
           WROTE           9025 WORDS OF (VB OB  VB OB) INTS TO FILE  82
           WROTE           9025 WORDS OF (VA OB  VA OB) INTS TO FILE  83
           WROTE           9025 WORDS OF <VA OA||VA OA> INTS TO FILE  84
           WROTE           9025 WORDS OF <VB OB||VB OB> INTS TO FILE  85
           WROTE           9025 WORDS OF <VA OB||VA OB> INTS TO FILE  86
           WROTE           9025 WORDS OF <OA VB||OA VB> INTS TO FILE  87
 PASS=  2, WILL PROCESS [VV|VO] INTEGRALS.
           WROTE          34295 WORDS OF <VA VA||OA VA> INTS TO FILE  88
           WROTE          34295 WORDS OF <VB VB||OB VB> INTS TO FILE  89
           WROTE          34295 WORDS OF <VA VB||OA VB> INTS TO FILE  90
           WROTE          34295 WORDS OF <VA VB||VA OB> INTS TO FILE  91
 PASSES  3 TO  6 WILL PROCESS [VV|VV] INTEGRALS.
 PASS=  3, DOING MN-MX ALPHA VIRTUAL=   6-  10, MN-MX BETA VIRTUAL=   6-  10
 PASS=  4, DOING MN-MX ALPHA VIRTUAL=  11-  15, MN-MX BETA VIRTUAL=  11-  15
 PASS=  5, DOING MN-MX ALPHA VIRTUAL=  16-  20, MN-MX BETA VIRTUAL=  16-  20
 PASS=  6, DOING MN-MX ALPHA VIRTUAL=  21-  24, MN-MX BETA VIRTUAL=  21-  24
           WROTE         130321 WORDS OF <VA VA||VA VA> INTS TO FILE  92
           WROTE         130321 WORDS OF <VB VB||VB VB> INTS TO FILE  92
           WROTE         130321 WORDS OF <VA VB||VA VB> INTS TO FILE  92
 ....... DONE WITH CC INTEGRAL PREPARATION .......
 STEP CPU TIME =     0.02 TOTAL CPU TIME =          0.1 (      0.0 MIN)
 TOTAL WALL CLOCK TIME=          0.1 SECONDS, CPU UTILIZATION IS    98.58%

        -----------------------
        OPEN-SHELL CCSD PROGRAM
        -----------------------
 MEMORY NEEDED BY CCSD    :       195184 WORDS

      BEGINNING OPEN SHELL CCSD ITERATIONS
 ITERATION:   1  CCSD CORR E=  -0.2707536923  CONV:    0.159500501
 ITERATION:   2  CCSD CORR E=  -0.3042141059  CONV:    0.090855316
 ITERATION:   3  CCSD CORR E=  -0.3045130208  CONV:    0.048889628
 ITERATION:   4  CCSD CORR E=  -0.3125018913  CONV:    0.033202211
 ITERATION:   5  CCSD CORR E=  -0.3141316857  CONV:    0.021626528
 ITERATION:   6  CCSD CORR E=  -0.3166159991  CONV:    0.015246342
      DOING DIIS EXTRAPOLATION (DIM.OF THE SPACE=  6)
 ITERATION:   7  CCSD CORR E=  -0.3200741582  CONV:    0.003549959
 ITERATION:   8  CCSD CORR E=  -0.3201667496  CONV:    0.001849619
 ITERATION:   9  CCSD CORR E=  -0.3202804516  CONV:    0.001275149
 ITERATION:  10  CCSD CORR E=  -0.3203283806  CONV:    0.000954261
 ITERATION:  11  CCSD CORR E=  -0.3203735851  CONV:    0.000729409
 ITERATION:  12  CCSD CORR E=  -0.3204020121  CONV:    0.000561945
      DOING DIIS EXTRAPOLATION (DIM.OF THE SPACE=  6)
 ITERATION:  13  CCSD CORR E=  -0.3205019548  CONV:    0.000106337
 ITERATION:  14  CCSD CORR E=  -0.3205069511  CONV:    0.000054477
 ITERATION:  15  CCSD CORR E=  -0.3205081508  CONV:    0.000039573
 ITERATION:  16  CCSD CORR E=  -0.3205097111  CONV:    0.000024785
 ITERATION:  17  CCSD CORR E=  -0.3205103621  CONV:    0.000017738
 ITERATION:  18  CCSD CORR E=  -0.3205110659  CONV:    0.000011792
      DOING DIIS EXTRAPOLATION (DIM.OF THE SPACE=  6)
 ITERATION:  19  CCSD CORR E=  -0.3205123899  CONV:    0.000002115
 ITERATION:  20  CCSD CORR E=  -0.3205125028  CONV:    0.000001399
 ITERATION:  21  CCSD CORR E=  -0.3205125544  CONV:    0.000001016
 ITERATION:  22  CCSD CORR E=  -0.3205125994  CONV:    0.000000782
 ITERATION:  23  CCSD CORR E=  -0.3205126301  CONV:    0.000000600
 ITERATION:  24  CCSD CORR E=  -0.3205126549  CONV:    0.000000465
      DOING DIIS EXTRAPOLATION (DIM.OF THE SPACE=  6)
 ITERATION:  25  CCSD CORR E=  -0.3205127366  CONV:    0.000000075

     THE CCSD ITERATIONS HAVE CONVERGED
     CCSD CORRELATION ENERGY:  -0.3205127366

 THE LARGEST T1 AND T2 AMPLITUDES ARE
 T1=  -0.0444426166 FOR IA -> AA =   4  12
 T1=   0.0847038091 FOR IA -> AA =   5   6
 T1=  -0.0346190475 FOR IA -> AA =   5   8
 T1=   0.0388615011 FOR IA -> AA =   5  11
 T1=  -0.0444426166 FOR IB -> AB =   4  12
 T1=   0.0847038091 FOR IB -> AB =   5   6
 T1=  -0.0346190475 FOR IB -> AB =   5   8
 T1=   0.0388615011 FOR IB -> AB =   5  11
 T2=  -0.0261934255 FOR IA,JB -> AA, BB =   2   5   6   6
 T2=  -0.0456420407 FOR IA,JB -> AA, BB =   3   3  10  10
 T2=  -0.0257165579 FOR IA,JB -> AA, BB =   3   4  10   7
 T2=  -0.0257165579 FOR IA,JB -> AA, BB =   4   3   7  10
 T2=  -0.1130136513 FOR IA,JB -> AA, BB =   4   4   6   6
 T2=   0.0262363878 FOR IA,JB -> AA, BB =   4   4   6   8
 T2=  -0.2298467265 FOR IA,JB -> AA, BB =   4   4   7   7
 T2=  -0.0386132903 FOR IA,JB -> AA, BB =   4   4   7   9
 T2=   0.0307599487 FOR IA,JB -> AA, BB =   4   4   7  12
 T2=   0.0262363878 FOR IA,JB -> AA, BB =   4   4   8   6
 T2=  -0.0386132903 FOR IA,JB -> AA, BB =   4   4   9   7
 T2=   0.0307599487 FOR IA,JB -> AA, BB =   4   4  12   7
 T2=   0.1807223567 FOR IA,JB -> AA, BB =   4   5   6   7
 T2=   0.0363032122 FOR IA,JB -> AA, BB =   4   5   6   9
 T2=   0.1683324337 FOR IA,JB -> AA, BB =   4   5   7   6
 T2=  -0.0300165250 FOR IA,JB -> AA, BB =   4   5   7   8
 T2=  -0.0359481167 FOR IA,JB -> AA, BB =   4   5   8   7
 T2=   0.0301920847 FOR IA,JB -> AA, BB =   4   5   9   6
 T2=  -0.0261934255 FOR IA,JB -> AA, BB =   5   2   6   6
 T2=   0.1683324337 FOR IA,JB -> AA, BB =   5   4   6   7
 T2=   0.0301920847 FOR IA,JB -> AA, BB =   5   4   6   9
 T2=   0.1807223567 FOR IA,JB -> AA, BB =   5   4   7   6
 T2=  -0.0359481167 FOR IA,JB -> AA, BB =   5   4   7   8
 T2=  -0.0300165250 FOR IA,JB -> AA, BB =   5   4   8   7
 T2=   0.0363032122 FOR IA,JB -> AA, BB =   5   4   9   6
 T2=  -0.2807942297 FOR IA,JB -> AA, BB =   5   5   6   6
 T2=   0.0443119078 FOR IA,JB -> AA, BB =   5   5   6   8
 T2=   0.0345484629 FOR IA,JB -> AA, BB =   5   5   6  11
 T2=  -0.1112628358 FOR IA,JB -> AA, BB =   5   5   7   7
 T2=   0.0443119078 FOR IA,JB -> AA, BB =   5   5   8   6
 T2=   0.0345484629 FOR IA,JB -> AA, BB =   5   5  11   6

                         SUMMARY OF CCSD RESULTS

     REFERENCE ENERGY:      -75.6286185845
          CCSD ENERGY:      -75.9491313210   CORR. E=  -0.3205127366


 ....... DONE WITH CCSD AMPLITUDE ITERATIONS .......
 STEP CPU TIME =     0.74 TOTAL CPU TIME =          0.8 (      0.0 MIN)
 TOTAL WALL CLOCK TIME=          0.8 SECONDS, CPU UTILIZATION IS    99.82%

        -------------------------------------
        OPEN-SHELL EQUATION-OF-MOTION PROGRAM
        -------------------------------------
 MEMORY NEEDED BY ONEHBAR :       133392 WORDS
 MEMORY NEEDED BY TWOHBAR :       215249 WORDS
 ....... DONE WITH MATRIX ELEMENTS OF HBAR .......
 STEP CPU TIME =     0.07 TOTAL CPU TIME =          0.9 (      0.0 MIN)
 TOTAL WALL CLOCK TIME=          0.9 SECONDS, CPU UTILIZATION IS    99.83%

   --------------------------------------------------
   IONIZED EQUATION-OF-MOTION COUPLED-CLUSTER PROGRAM
       PROGRAM BY J.R.GOUR, J.J.LUTZ, P.PIECUCH
   --------------------------------------------------

        ------------------------------------
        IP-EOMCC 'CIS' INITIAL START PROGRAM
        ------------------------------------
 MEMORY NEEDED BY IPINIT:        23576 WORDS

 THE IP-EOMCC POINT GROUP IS C2V
 GROUND STATE SYMETRY IS  A1 
 SIZE OF CIS PROBLEM:       3
    1 INITIAL VECTORS OF A1  SYMMETRY HAVE BEEN FOUND.
    ORDERING OF THE INITIAL EIGENVALUES WAS SUCCESSFUL
    INITIAL EIGENVALUES OF A1  SYMMETRY:
     E=         0.4301539243   SPIN MULTIPLICITY= 2
 ..... DONE WITH IP-EOMCC INITIAL START CALCULATION     .....
 STEP CPU TIME =     0.00 TOTAL CPU TIME =          0.9 (      0.0 MIN)
 TOTAL WALL CLOCK TIME=          0.9 SECONDS, CPU UTILIZATION IS    99.83%

                  -------------------------
                  IP-EOMCCSD(2H-1P) PROGRAM
                  -------------------------
 MEMORY NEEDED BY IP2SOLSR:        67286 WORDS

      BEGINNING IP-EOMCCSD(2H-1P) ITERATIONS FOR ROOT NO.   1
 ITERATION:   1  IP ENERGY=   0.5453906677  CONV:    1.043548623
 ITERATION:   2  IP ENERGY=   0.4617732317  CONV:    0.054991858
 ITERATION:   3  IP ENERGY=   0.4574379702  CONV:    0.029282107
 ITERATION:   4  IP ENERGY=   0.4559375961  CONV:    0.013455034
 ITERATION:   5  IP ENERGY=   0.4556622759  CONV:    0.005155249
 ITERATION:   6  IP ENERGY=   0.4555918900  CONV:    0.001652087
 ITERATION:   7  IP ENERGY=   0.4556100851  CONV:    0.000485511
 ITERATION:   8  IP ENERGY=   0.4555915862  CONV:    0.000167612
 ITERATION:   9  IP ENERGY=   0.4555873493  CONV:    0.000072917

  THE IP-EOMCCSD(2H-1P) ITERATIONS FOR ROOT NO.   1 HAVE CONVERGED
  IP-EOMCCSD(2H-1P) IONIZATION ENERGY:    0.4555873493

    R(1H)=   0.0565954231 FOR IB=   2
    R(1H)=  -0.9464062779 FOR IB=   5
 R(2H-1P)=   0.0605785750 FOR IB, JB -> BB =   4   5   7
 R(2H-1P)=  -0.0587243403 FOR IB, JA -> BA =   4   5   7
 R(2H-1P)=  -0.1193029153 FOR IB, JA -> BA =   5   4   7
 R(2H-1P)=   0.2568711119 FOR IB, JA -> BA =   5   5   6

        SUMMARY OF IP-EOMCCSD(2H-1P) RESULTS FOR ROOT NO.   1
                  THE SYMMETRY OF THE STATE IS A1 
              THE SPIN MULTIPLICITY OF THE STATE IS 2
 IP-EOMCCSD(2H-1P) E=      -75.4935439717  IONIZE E=   0.4555873493


         ---- SUMMARY OF IP-EOMCCSD(2H-1P) CALCULATIONS ----
         SPIN      IONIZATION             TOTAL
  SYMM   MULT      ENERGY (H)           ENERGY (H)       ITERATIONS
   A1     2       0.4555873493        -75.4935439717     CONVERGED

 SELECTING TARGET STATE IROOT=  1  1 AS BEST IP ENERGY      -75.4935439717
 ..... DONE WITH IP-EOMCCSD(2H-1P) AMPLITUDE ITERATIONS .....
 STEP CPU TIME =     0.01 TOTAL CPU TIME =          0.9 (      0.0 MIN)
 TOTAL WALL CLOCK TIME=          0.9 SECONDS, CPU UTILIZATION IS    99.84%
               580000  WORDS OF DYNAMIC MEMORY USED
 EXECUTION OF GAMESS TERMINATED NORMALLY 22:49:49 29-AUG-2023    
 DDI: 263640 bytes (0.3 MB / 0 MWords) used by master data server.

 ----------------------------------------
 CPU timing information for all processes
 ========================================
 0: 0.776 + 0.156 = 0.932
 ----------------------------------------
 ddikick.x: exited gracefully.
----- accounting info -----
Files used on the master node coupled.cem.msu.edu were:
-rw-r--r-- 1 gururang piecuch     324 Aug 29 22:49 /scratch/gururang/h2o.F05
-rw-r--r-- 1 gururang piecuch  180016 Aug 29 22:49 /scratch/gururang/h2o.F08
-rw-r--r-- 1 gururang piecuch  182424 Aug 29 22:49 /scratch/gururang/h2o.F09
-rw-r--r-- 1 gururang piecuch 1865040 Aug 29 22:49 /scratch/gururang/h2o.F10
-rw-r--r-- 1 gururang piecuch  649800 Aug 29 22:49 /scratch/gururang/h2o.F70
-rw-r--r-- 1 gururang piecuch 2527000 Aug 29 22:49 /scratch/gururang/h2o.F71
-rw-r--r-- 1 gururang piecuch   28880 Aug 29 22:49 /scratch/gururang/h2o.F72
-rw-r--r-- 1 gururang piecuch       0 Aug 29 22:49 /scratch/gururang/h2o.F73
-rw-r--r-- 1 gururang piecuch    5000 Aug 29 22:49 /scratch/gururang/h2o.F74
-rw-r--r-- 1 gururang piecuch    5000 Aug 29 22:49 /scratch/gururang/h2o.F75
-rw-r--r-- 1 gururang piecuch    5000 Aug 29 22:49 /scratch/gururang/h2o.F76
-rw-r--r-- 1 gururang piecuch   19000 Aug 29 22:49 /scratch/gururang/h2o.F77
-rw-r--r-- 1 gururang piecuch   19000 Aug 29 22:49 /scratch/gururang/h2o.F78
-rw-r--r-- 1 gururang piecuch   19000 Aug 29 22:49 /scratch/gururang/h2o.F79
-rw-r--r-- 1 gururang piecuch   19000 Aug 29 22:49 /scratch/gururang/h2o.F80
-rw-r--r-- 1 gururang piecuch   72200 Aug 29 22:49 /scratch/gururang/h2o.F81
-rw-r--r-- 1 gururang piecuch   72200 Aug 29 22:49 /scratch/gururang/h2o.F82
-rw-r--r-- 1 gururang piecuch   72200 Aug 29 22:49 /scratch/gururang/h2o.F83
-rw-r--r-- 1 gururang piecuch   72200 Aug 29 22:49 /scratch/gururang/h2o.F84
-rw-r--r-- 1 gururang piecuch   72200 Aug 29 22:49 /scratch/gururang/h2o.F85
-rw-r--r-- 1 gururang piecuch   72200 Aug 29 22:49 /scratch/gururang/h2o.F86
-rw-r--r-- 1 gururang piecuch   72200 Aug 29 22:49 /scratch/gururang/h2o.F87
-rw-r--r-- 1 gururang piecuch  274360 Aug 29 22:49 /scratch/gururang/h2o.F88
-rw-r--r-- 1 gururang piecuch  274360 Aug 29 22:49 /scratch/gururang/h2o.F89
-rw-r--r-- 1 gururang piecuch  274360 Aug 29 22:49 /scratch/gururang/h2o.F90
-rw-r--r-- 1 gururang piecuch  274360 Aug 29 22:49 /scratch/gururang/h2o.F91
-rw-r--r-- 1 gururang piecuch 3127704 Aug 29 22:49 /scratch/gururang/h2o.F92
-rw-r--r-- 1 gururang piecuch 1227400 Aug 29 22:49 /scratch/gururang/h2o.F93
-rw-r--r-- 1 gururang piecuch 3841040 Aug 29 22:49 /scratch/gururang/h2o.F94
-rw-r--r-- 1 gururang piecuch 3127704 Aug 29 22:49 /scratch/gururang/h2o.F95
-rw-r--r-- 1 gururang piecuch  205200 Aug 29 22:49 /scratch/gururang/h2o.F96
-rw-r--r-- 1 gururang piecuch    7640 Aug 29 22:49 /scratch/gururang/h2o.F97
-rw-r--r-- 1 gururang piecuch       0 Aug 29 22:49 /scratch/gururang/h2o.F98
Tue Aug 29 22:49:50 EDT 2023
0.214u 0.113s 0:02.28 14.0%	0+0k 0+8io 0pf+0w
