1 : ch2-avdz.inp
----- GAMESS execution script 'rungms' -----
This job is running on host coupled.cem.msu.edu
under operating system Linux at Sun Sep 10 14:21:35 EDT 2023
Available scratch disk space (Kbyte units) at beginning of the job is
Filesystem      1K-blocks       Used Available Use% Mounted on
/dev/sdb2      2620586816 2158375672 329086268  87% /scratch
GAMESS temporary binary files will be written to /scratch/gururang
GAMESS supplementary output files will be written to /scratch/gururang/test-cc3
Copying input file /scratch/gururang/test-cc3/ch2-avdz.inp to your run's scratch directory...

 Distributed Data Interface kickoff program.
 Initiating 1 compute processes on 1 nodes to run the following command:
 /home2/gururang/gamess_new/gamess/gamess.00.x ch2-avdz 

          *******************************************************
          *                                                     *
          *          GAMESS VERSION = 30 SEP 2022 (R2)          *
          *                                                     *
          *              doi.org/10.1063/5.0005188              *
          *                                                     *
          **************** 64 BIT LINUX VERSION *****************

  GAMESS HAS BEEN MADE POSSIBLE WITH IMPORTANT CONTRIBUTIONS FROM
  THE FOLLOWING INDIVIDUALS (IN ALPHABETICAL ORDER):

     IVANA ADAMOVIC, CHRISTINE AIKENS, TOMOKO AKAMA,
     MELISA ALKAN, YURI ALEXEEV, YURIKO AOKI, POOJA ARORA,
     TOSHIO ASADA, ANDREY ASADCHEV, KIM K. BALDRIDGE,
     PRADIPTA BANDYOPADHYAY, TAYLOR A. BARNES, MARIA BARYSZ,
     ROB BELL, JONATHAN BENTZ, COLLEEN BERTONI,
     JERRY A. BOATZ, BRETT BODE, KURT BRORSEN, KURT R. BRORSEN,
     LAIMUTIS BYTAUTAS, CALEB CARLIN, LAURA CARRINGTON,
     GALINA CHABAN, BENOIT CHAMPAGNE, WEI CHEN, MAHITO CHIBA,
     DAN CHIPMAN, CHEOL HO CHOI, TANNER CULPITT,
     DIPAYAN DATTA, PAUL DAY, ALBERT DEFUSCO,
     NUWAN DESILVA, J. EMILIANO DEUSTUA,
     TIM DUDLEY, MICHEL DUPUIS, STEVEN T. ELBERT,
     DMITRI FEDOROV, KATHERINE FERRERAS, MICHAEL FILATOV,
     ALEX FINDLATER,GRAHAM FLETCHER, MARK FREITAG,
     CHRISTIAN FRIEDL, DAVID GARMER, 
     IGOR S. GERASIMOV, KURT GLAESEMANN,
     MARK S. GORDON, JEFFREY GOUR, FENG LONG GU,
     EMILIE B. GUIDEZ, ANASTASIA GUNINA, SHARON HAMMES-SCHIFFER,
     MASATAKE HARUTA, KIMIHIKO HIRAO, YASUHIRO IKABATA,
     TZVETELIN IORDANOV, STEPHAN IRLE, KAZUYA ISHIMURA,
     JOE IVANIC, FRANK JENSEN, JAN H. JENSEN, VISVALDAS KAIRYS,
     MUNEAKI KAMIYA, MICHIO KATOUDA, NAOAKI KAWAKAMI, DAN KEMP,
     BERNARD KIRTMAN, KAZUO KITAURA, MARIUSZ KLOBUKOWSKI,
     MASATO KOBAYASHI, KONSTANTIN KOMAROV, PRAKASHAN KORAMBATH,
     JACEK KORCHOWIEC, SHIRO KOSEKI, KAROL KOWALSKI,
     JIMMY KROMANN, STANISLAW KUCHARSKI, HENRY KURTZ,
     SAROM SOK LEANG, SEUNGHOON LEE, HUI LI, SHUHUA LI, WEI LI,
     JESSE LUTZ, ALEKSANDR O. LYKHIN, MARCIN MAKOWSKI,
     JOANI MATO, NIKITA MATSUNAGA, BENEDETTA MENNUCCI,
     GRANT MERRILL, NORIYUKI MINEZAWA, VLADIMIR MIRONOV,
     EISAKU MIYOSHI, JOHN A. MONTGOMERY JR., HIROTOSHI MORI,
     JONATHAN MULLIN, MONIKA MUSIAL, SHIGERU NAGASE,
     TAKESHI NAGATA, HIROMI NAKAI, TAKAHITO NAKAJIMA,
     YUYA NAKAJIMA, HARUYUKI NAKANO, HIROYA NAKATA, SEAN NEDD,
     HEATHER NETZLOFF, KIET A. NGUYEN, YOSHIO NISHIMOTO,
     BOSILJKA NJEGIC, RYAN OLSON, MIKE PAK, ROBERTO PEVERATI,
     BUU PHAM, PIOTR PIECUCH, ANNA POMOGAEVA, DAVID POOLE,
     SPENCER PRUITT, OLIVIER QUINET, LUKE ROSKOP,
     KLAUS RUEDENBERG, ANDREW SAND, TOSAPORN SATTASATHUCHANA,
     NOZOMI SAWADA, MICHAEL W. SCHMIDT, PATRICK E. SCHNEIDER,
     JUNJI SEINO, PRACHI SHARMA, JUN SHEN, JIM SHOEMAKER,
     YINAN SHU, DEJUN SI, JONATHAN SKONE, LYUDMILA SLIPCHENKO,
     TONY SMITH, JIE SONG, MARK SPACKMAN, CASPER STEINMANN,
     WALT STEVENS, PEIFENG SU, SHUJUN SU, CHET SWALINA,
     CHINAMI TAKASHIMA, TETSUYA TAKETSUGU, ZHEN TAO,
     NANDUN THELLAMUREGE, SEIKEN TOKURA, JACOPO TOMASI,
     TSUGUKI TOUMA, TAKAO TSUNEDA, HIROAKI UMEDA,
     JORGE LUIS GALVEZ VALLEJO, YALI WANG, SIMON WEBB,
     AARON WEST, THERESA L. WINDUS, MARTA WLOCH,
     PENG XU, KIYOSHI YAGI, SUSUMU YANAGISAWA, YANG YANG,
     SOOHAENG YOO, TAKESHI YOSHIKAWA, FEDERICO ZAHARIEV,
     TOBY ZENG

  WHO ARE SUPPORTED BY THEIR INSTITUTION/UNIVERSITY/COMPANY/GROUP
  (IN ALPHABETICAL ORDER):

     EP ANALYTICS,
     FACULTES UNIVERSITAIRES NOTRE-DAME DE LA PAIX,
     INSTITUTE FOR MOLECULAR SCIENCE, IOWA STATE UNIVERSITY,
     JACKSON STATE UNIVERSITY, JOHANNES KEPLER UNIVERSITY LINZ,
     KYUNGPOOK NATIONAL UNIVERSITY
     KYUSHU UNIVERSITY, MICHIGAN STATE UNIVERSITY,
     MIE UNIVERSITY, THE MOLECULAR SCIENCES SOFTWARE INSTITUTE,
     MOSCOW STATE UNIVERSITY,
     N. COPERNICUS UNIVERSITY, NAGOYA UNIVERSITY,
     NANJING UNIVERSITY, NAT. INST. OF ADVANCED INDUSTRIAL
     SCIENCE AND TECHNOLOGY, NATIONAL INST. OF STANDARDS AND
     TECHNOLOGY, NESMEYANOV INSTITUTE OF ORGANOELEMENT COMPOUNDS
     OF RUSSIAN ACADEMY OF SCIENCES, OSAKA PREFECTURE UNIVERSITY,
     PENNSYLVANIA STATE UNIVERSITY, TOKYO INSTITUTE OF TECHNOLOGY,
     UNIVERSITY OF AARHUS, UNIVERSITY OF ALBERTA,
     UNIVERSITY OF CALIFORNIA AT SANTA BARBARA,
     UNIVERSITY OF COPENHAGEN, UNIVERSITY OF IOWA,
     UNIVERSITY OF MEMPHIS, UNIVERSITY OF MINNESOTA,
     UNIVERSITY OF NEBRASKA, UNIVERSITY OF NEW ENGLAND,
     UNIVERSITY OF NOTRE DAME, UNIVERSITY OF PISA,
     UNIVERSITY OF SILESIA, UNIVERSITY OF TOKYO,
     UNIVERSITY OF ZURICH, WASEDA UNIVERSITY,
     YALE UNIVERSITY

  GAMESS SOFTWARE MANAGEMENT TEAM FOR THIS RELEASE:
     MARK S. GORDON (TEAM LEAD),
     BRETT BODE (SENIOR ADVISOR),
     GIUSEPPE BARCA,
     COLLEEN BERTONI,
     KRISTOPHER KEIPERT (ADVISOR),
     SAROM S. LEANG (DEVELOPMENT LEAD),
     BUU PHAM,
     JACKSON HAYES (WEBSITE ADMINISTRATOR),
     PENG XU

 EXECUTION OF GAMESS BEGUN 14:21:35 10-SEP-2023    

            ECHO OF THE FIRST FEW INPUT CARDS -
 INPUT CARD> $contrl runtyp=fcidump scftyp=rhf mult=1                                       
 INPUT CARD>         ispher=1 units=bohr $end                                               
 INPUT CARD> $system mwords=50 $end                                                         
 INPUT CARD> $data                                                                          
 INPUT CARD>CH2 in custom aug-cc-pVDZ basis from Koch CPL 244 75 (1995)                     
 INPUT CARD>Cnv 2                                                                           
 INPUT CARD>                                                                                
 INPUT CARD> C   6.0     0.000000    0.000000    0.000000                                   
 INPUT CARD>S   9                                                                           
 INPUT CARD>1         6.665000E+03           6.920000E-04                                   
 INPUT CARD>2         1.000000E+03           5.329000E-03                                   
 INPUT CARD>3         2.280000E+02           2.707700E-02                                   
 INPUT CARD>4         6.471000E+01           1.017180E-01                                   
 INPUT CARD>5         2.106000E+01           2.747400E-01                                   
 INPUT CARD>6         7.495000E+00           4.485640E-01                                   
 INPUT CARD>7         2.797000E+00           2.850740E-01                                   
 INPUT CARD>8         5.215000E-01           1.520400E-02                                   
 INPUT CARD>9         1.596000E-01          -3.191000E-03                                   
 INPUT CARD>S   9                                                                           
 INPUT CARD>1         6.665000E+03          -1.460000E-04                                   
 INPUT CARD>2         1.000000E+03          -1.154000E-03                                   
 INPUT CARD>3         2.280000E+02          -5.725000E-03                                   
 INPUT CARD>4         6.471000E+01          -2.331200E-02                                   
 INPUT CARD>5         2.106000E+01          -6.395500E-02                                   
 INPUT CARD>6         7.495000E+00          -1.499810E-01                                   
 INPUT CARD>7         2.797000E+00          -1.272620E-01                                   
 INPUT CARD>8         5.215000E-01           5.445290E-01                                   
 INPUT CARD>9         1.596000E-01           5.804960E-01                                   
 INPUT CARD>S   1                                                                           
 INPUT CARD>1         1.596000E-01           1.000000E+00                                   
 INPUT CARD>S   1                                                                           
 INPUT CARD>1         0.015                  1.00                                           
 INPUT CARD>P   4                                                                           
 INPUT CARD>1         9.439000E+00           3.810900E-02                                   
 INPUT CARD>2         2.002000E+00           2.094800E-01                                   
 INPUT CARD>3         5.456000E-01           5.085570E-01                                   
 INPUT CARD>4         1.517000E-01           4.688420E-01                                   
 INPUT CARD>P   1                                                                           
 INPUT CARD>1         1.517000E-01           1.000000E+00                                   
 INPUT CARD>D   1                                                                           
 INPUT CARD>1         5.500000E-01           1.0000000                                      
 INPUT CARD>                                                                                
 INPUT CARD> H   1.0    0.000000    1.644403    1.32213                                     
 INPUT CARD>S   4                                                                           
 INPUT CARD>1         1.301000E+01           1.968500E-02                                   
 INPUT CARD>2         1.962000E+00           1.379770E-01                                   
 INPUT CARD>3         4.446000E-01           4.781480E-01                                   
 INPUT CARD>4         1.220000E-01           5.012400E-01                                   
 INPUT CARD>S   1                                                                           
 INPUT CARD>1         1.220000E-01           1.000000E+00                                   
     50000000 WORDS OF MEMORY AVAILABLE


     RUN TITLE
     ---------
 CH2 in custom aug-cc-pVDZ basis from Koch CPL 244 75 (1995)                     

 THE POINT GROUP OF THE MOLECULE IS CNV     
 THE ORDER OF THE PRINCIPAL AXIS IS     2

 ATOM      ATOMIC                      COORDINATES (BOHR)
           CHARGE         X                   Y                   Z
 C           6.0     0.0000000000        0.0000000000        0.0000000000
 H           1.0    -0.0000000000       -1.6444030000        1.3221300000
 H           1.0     0.0000000000        1.6444030000        1.3221300000

          INTERNUCLEAR DISTANCES (ANGS.)
          ------------------------------

                1 C          2 H          3 H     

   1 C       0.0000000    1.1165626 *  1.1165626 *
   2 H       1.1165626 *  0.0000000    1.7403613 *
   3 H       1.1165626 *  1.7403613 *  0.0000000  

  * ... LESS THAN  3.000


     ATOMIC BASIS SET
     ----------------
 THE CONTRACTED PRIMITIVE FUNCTIONS HAVE BEEN UNNORMALIZED
 THE CONTRACTED BASIS FUNCTIONS ARE NOW NORMALIZED TO UNITY

  SHELL TYPE  PRIMITIVE        EXPONENT          CONTRACTION COEFFICIENT(S)

 C         

      1   S       1          6665.0000000    0.000692000179
      1   S       2          1000.0000000    0.005329001381
      1   S       3           228.0000000    0.027077007014
      1   S       4            64.7100000    0.101718026351
      1   S       5            21.0600000    0.274740071173
      1   S       6             7.4950000    0.448564116203
      1   S       7             2.7970000    0.285074073850
      1   S       8             0.5215000    0.015204003939
      1   S       9             0.1596000   -0.003191000827

      2   S      10          6665.0000000   -0.000146000064
      2   S      11          1000.0000000   -0.001154000508
      2   S      12           228.0000000   -0.005725002519
      2   S      13            64.7100000   -0.023312010255
      2   S      14            21.0600000   -0.063955028135
      2   S      15             7.4950000   -0.149981065979
      2   S      16             2.7970000   -0.127262055984
      2   S      17             0.5215000    0.544529239546
      2   S      18             0.1596000    0.580496255368

      3   S      19             0.1596000    1.000000000000

      4   S      20             0.0150000    1.000000000000

      5   P      21             9.4390000    0.038109021271
      5   P      22             2.0020000    0.209480116922
      5   P      23             0.5456000    0.508557283852
      5   P      24             0.1517000    0.468842261685

      6   P      25             0.1517000    1.000000000000

      7   D      26             0.5500000    1.000000000000

 H         

     12   S      27            13.0100000    0.019684989991
     12   S      28             1.9620000    0.137976929844
     12   S      29             0.4446000    0.478147756880
     12   S      30             0.1220000    0.501239745139

     13   S      31             0.1220000    1.000000000000

     14   S      32             0.0250000    1.000000000000

     15   P      33             0.7270000    1.000000000000

 TOTAL NUMBER OF BASIS SET SHELLS             =   15
 NUMBER OF CARTESIAN GAUSSIAN BASIS FUNCTIONS =   28
 NOTE: THIS RUN WILL RESTRICT THE MO VARIATION SPACE TO SPHERICAL HARMONICS.
 THE NUMBER OF ORBITALS KEPT IN THE VARIATIONAL SPACE WILL BE PRINTED LATER.
 NUMBER OF ELECTRONS                          =    8
 CHARGE OF MOLECULE                           =    0
 SPIN MULTIPLICITY                            =    1
 NUMBER OF OCCUPIED ORBITALS (ALPHA)          =    4
 NUMBER OF OCCUPIED ORBITALS (BETA )          =    4
 TOTAL NUMBER OF ATOMS                        =    3
 THE NUCLEAR REPULSION ENERGY IS        5.9912725580

     $CONTRL OPTIONS
     ---------------
 SCFTYP=ROHF         RUNTYP=FCIDUMP      EXETYP=RUN     
 MPLEVL=       0     CITYP =NONE         CCTYP =NONE         VBTYP =NONE    
 DFTTYP=NONE         TDDFT =NONE    
 MULT  =       1     ICHARG=       0     NZVAR =       0     COORD =UNIQUE  
 PP    =NONE         RELWFN=NONE         LOCAL =NONE         NUMGRD=       F
 ISPHER=       1     NOSYM =       0     MAXIT =      30     UNITS =BOHR    
 PLTORB=       F     MOLPLT=       F     AIMPAC=       F     FRIEND=        
 NPRINT=       7     IREST =       0     GEOM  =INPUT   
 NORMF =       0     NORMP =       0     ITOL  =      20     ICUT  =       9
 INTTYP=BEST         GRDTYP=BEST         QMTTOL= 1.0E-06

     $SYSTEM OPTIONS
     ---------------
  REPLICATED MEMORY=    50000000 WORDS (ON EVERY NODE).
 DISTRIBUTED MEMDDI=           0 MILLION WORDS IN AGGREGATE,
 MEMDDI DISTRIBUTED OVER   1 PROCESSORS IS           0 WORDS/PROCESSOR.
 TOTAL MEMORY REQUESTED ON EACH PROCESSOR=    50000000 WORDS.
 TIMLIM=      525600.00 MINUTES, OR     365.0 DAYS.
 PARALL= F  BALTYP=  DLB     KDIAG=    0  COREFL= F
 MXSEQ2=     300 MXSEQ3=     150  mem10=         0  mem22=         0

          ----------------
          PROPERTIES INPUT
          ----------------

     MOMENTS            FIELD           POTENTIAL          DENSITY
 IEMOM =       1   IEFLD =       0   IEPOT =       0   IEDEN =       0
 WHERE =COMASS     WHERE =NUCLEI     WHERE =NUCLEI     WHERE =NUCLEI  
 OUTPUT=BOTH       OUTPUT=BOTH       OUTPUT=BOTH       OUTPUT=BOTH    
 IEMINT=       0   IEFINT=       0                     IEDINT=       0
                                                       MORB  =       0
          EXTRAPOLATION IN EFFECT
          SOSCF IN EFFECT
 ORBITAL PRINTING OPTION: NPREO=     1    28     2     1

     -------------------------------
     INTEGRAL TRANSFORMATION OPTIONS
     -------------------------------
     NWORD  =            0
     CUTTRF = 1.0E-09     MPTRAN =       0
     DIRTRF =       F     AOINTS =DUP     

          ----------------------
          INTEGRAL INPUT OPTIONS
          ----------------------
 NOPK  =       1 NORDER=       0 SCHWRZ=       F

     ------------------------------------------
     THE POINT GROUP IS CNV, NAXIS= 2, ORDER= 4
     ------------------------------------------

 -- VARIATIONAL SPACE WILL BE RESTRICTED TO PURE SPHERICAL HARMONICS ONLY --
 AFTER EXCLUDING CONTAMINANT COMBINATIONS FROM THE CARTESIAN GAUSSIAN BASIS
 SET, THE NUMBER OF SPHERICAL HARMONICS KEPT IN THE VARIATION SPACE IS   27

     DIMENSIONS OF THE SYMMETRY SUBSPACES ARE
 A1  =   13     A2  =    2     B1  =    4     B2  =    8

 ..... DONE SETTING UP THE RUN .....
 STEP CPU TIME =     0.03 TOTAL CPU TIME =          0.0 (      0.0 MIN)
 TOTAL WALL CLOCK TIME=          0.0 SECONDS, CPU UTILIZATION IS    99.97%

          ********************
          1 ELECTRON INTEGRALS
          ********************
 ...... END OF ONE-ELECTRON INTEGRALS ......
 STEP CPU TIME =     0.00 TOTAL CPU TIME =          0.0 (      0.0 MIN)
 TOTAL WALL CLOCK TIME=          0.0 SECONDS, CPU UTILIZATION IS    99.96%

          -------------
          GUESS OPTIONS
          -------------
          GUESS =HUCKEL            NORB  =       0          NORDER=       0
          MIX   =       F          PRTMO =       F          PUNMO =       F
          TOLZ  = 1.0E-08          TOLE  = 1.0E-05
          SYMDEN=       F          PURIFY=       F

 INITIAL GUESS ORBITALS GENERATED BY HUCKEL   ROUTINE.
 HUCKEL GUESS REQUIRES      8206 WORDS.

 STATISTICS FOR GENERATION OF SYMMETRY ORBITAL -Q- MATRIX
 NUMBER OF CARTESIAN ATOMIC ORBITALS=         28
 NUMBER OF SPHERICAL CONTAMINANTS DROPPED=     1
 NUMBER OF LINEARLY DEPENDENT MOS DROPPED=     0
 TOTAL NUMBER OF MOS IN VARIATION SPACE=      27

 SYMMETRIES FOR INITIAL GUESS ORBITALS FOLLOW.  ALPHA SET(S).
     4 ORBITALS ARE OCCUPIED (    1 CORE ORBITALS).
     2=A1       3=B2       4=A1       5=B1       6=B2       7=A1       8=A1  
     9=A1      10=A1      11=A1      12=A1      13=A1      14=A1  

 SYMMETRIES FOR INITIAL GUESS ORBITALS FOLLOW.   BETA SET(S).
     4 ORBITALS ARE OCCUPIED (    1 CORE ORBITALS).
     2=A1       3=B2       4=A1       5=B1       6=B2       7=A1       8=A1  
     9=A1      10=A1      11=A1      12=A1      13=A1      14=A1  
 ...... END OF INITIAL ORBITAL SELECTION ......
 STEP CPU TIME =     0.01 TOTAL CPU TIME =          0.0 (      0.0 MIN)
 TOTAL WALL CLOCK TIME=          0.0 SECONDS, CPU UTILIZATION IS    99.54%

                    ----------------------
                    AO INTEGRAL TECHNOLOGY
                    ----------------------
     S,P,L SHELL ROTATED AXIS INTEGRALS, REPROGRAMMED BY
        KAZUYA ISHIMURA (IMS) AND JOSE SIERRA (SYNSTAR).
     S,P,D,L SHELL ROTATED AXIS INTEGRALS PROGRAMMED BY
        KAZUYA ISHIMURA (INSTITUTE FOR MOLECULAR SCIENCE).
     S,P,D,F,G SHELL TO TOTAL QUARTET ANGULAR MOMENTUM SUM 5,
        ERIC PROGRAM BY GRAHAM FLETCHER (ELORET AND NASA ADVANCED
        SUPERCOMPUTING DIVISION, AMES RESEARCH CENTER).
     S,P,D,F,G,L SHELL GENERAL RYS QUADRATURE PROGRAMMED BY
        MICHEL DUPUIS (PACIFIC NORTHWEST NATIONAL LABORATORY).

          --------------------
          2 ELECTRON INTEGRALS
          --------------------

 THE -PK- OPTION IS OFF, THE INTEGRALS ARE NOT IN SUPERMATRIX FORM.
 STORING   15000 INTEGRALS/RECORD ON DISK, USING 12 BYTES/INTEGRAL.
 TWO ELECTRON INTEGRAL EVALUATION REQUIRES   90516 WORDS OF MEMORY.
 II,JST,KST,LST =  1  1  1  1 NREC =         1 INTLOC =    1
 II,JST,KST,LST =  2  1  1  1 NREC =         1 INTLOC =    2
 II,JST,KST,LST =  3  1  1  1 NREC =         1 INTLOC =    7
 II,JST,KST,LST =  4  1  1  1 NREC =         1 INTLOC =   22
 II,JST,KST,LST =  5  1  1  1 NREC =         1 INTLOC =   56
 II,JST,KST,LST =  6  1  1  1 NREC =         1 INTLOC =  125
 II,JST,KST,LST =  7  1  1  1 NREC =         1 INTLOC =  329
 II,JST,KST,LST =  8  1  1  1 NREC =         1 INTLOC = 1589
 II,JST,KST,LST =  9  1  1  1 NREC =         1 INTLOC = 1589
 II,JST,KST,LST = 10  1  1  1 NREC =         1 INTLOC = 1589
 II,JST,KST,LST = 11  1  1  1 NREC =         1 INTLOC = 1589
 II,JST,KST,LST = 12  1  1  1 NREC =         1 INTLOC = 1589
 II,JST,KST,LST = 13  1  1  1 NREC =         1 INTLOC = 3208
 II,JST,KST,LST = 14  1  1  1 NREC =         1 INTLOC = 5514
 II,JST,KST,LST = 15  1  1  1 NREC =         1 INTLOC = 8693
 TOTAL NUMBER OF NONZERO TWO-ELECTRON INTEGRALS =               22318
          2 INTEGRAL RECORDS WERE STORED ON DISK FILE  8.
  ...... END OF TWO-ELECTRON INTEGRALS .....
 STEP CPU TIME =     0.04 TOTAL CPU TIME =          0.1 (      0.0 MIN)
 TOTAL WALL CLOCK TIME=          0.1 SECONDS, CPU UTILIZATION IS    98.18%

          ---------------------------
                 ROHF SCF CALCULATION
          ---------------------------

     NUCLEAR ENERGY =         5.9912725580
     MAXIT = 30     NPUNCH=  2     MULT=  1
     EXTRAP=T  DAMP=F  SHIFT=F  RSTRCT=F  DIIS=F  SOSCF=T
     DENSITY MATRIX CONV=  1.00E-05
     ROHF CANONICALIZATION PARAMETERS
             C-C     O-O     V-V
     ALPHA -0.5000  0.5000  1.5000
     BETA   1.5000  0.5000 -0.5000
     SOSCF WILL OPTIMIZE      92 ORBITAL ROTATION ANGLES. SOGTOL= 2.500E-01
     MEMORY REQUIRED FOR UHF/ROHF ITERS=     38028 WORDS.

 ITER EX      TOTAL ENERGY        E CHANGE  DENSITY CHANGE    ORB. GRAD 
   1  0      -38.7614591022   -38.7614591022   0.507279099   0.000000000
          ---------------START SECOND ORDER SCF---------------
   2  1      -38.8751823403    -0.1137232381   0.111969195   0.023937706
   3  2      -38.8807265903    -0.0055442500   0.071990406   0.008560333
   4  3      -38.8814106116    -0.0006840213   0.009937067   0.001040758
   5  4      -38.8814236449    -0.0000130333   0.002681235   0.000386839
   6  5      -38.8814257441    -0.0000020992   0.000321831   0.000057697
   7  6      -38.8814257896    -0.0000000455   0.000090302   0.000015627
   8  7      -38.8814257929    -0.0000000033   0.000015470   0.000002377
   9  8      -38.8814257930    -0.0000000001   0.000010013   0.000000792
  10  9      -38.8814257930    -0.0000000000   0.000001494   0.000000122

          -----------------
          DENSITY CONVERGED
          -----------------
     TIME TO FORM FOCK OPERATORS=       0.0 SECONDS (       0.0 SEC/ITER)
     TIME TO SOLVE SCF EQUATIONS=       0.0 SECONDS (       0.0 SEC/ITER)

 FINAL ROHF ENERGY IS      -38.8814257930 AFTER  10 ITERATIONS

          --------------------
          SPIN SZ   =    0.000
          S-SQUARED =    0.000
          --------------------

          ------------
          EIGENVECTORS
          ------------

                      1          2          3          4          5
                  -11.2966    -0.8870    -0.5586    -0.3906     0.0294
                     A1         A1         B2         A1         A1  
    1  C  1  S    1.000917  -0.012082  -0.000000   0.001151   0.005738
    2  C  1  S    0.004913   0.786422  -0.000000  -0.422560  -0.104318
    3  C  1  S   -0.004829  -0.138827  -0.000000  -0.173888  -0.147872
    4  C  1  S    0.000046  -0.004349  -0.000000  -0.060070   2.066027
    5  C  1  X    0.000000  -0.000000  -0.000000  -0.000000  -0.000000
    6  C  1  Y    0.000000  -0.000000   0.652782  -0.000000  -0.000000
    7  C  1  Z    0.004472   0.184809  -0.000000   0.744641   0.003815
    8  C  1  X    0.000000  -0.000000  -0.000000  -0.000000  -0.000000
    9  C  1  Y    0.000000  -0.000000  -0.120002  -0.000000  -0.000000
   10  C  1  Z   -0.003501  -0.061924  -0.000000   0.022733   0.047009
   11  C  1 XX   -0.001206  -0.010217  -0.000000  -0.023533  -0.001857
   12  C  1 YY    0.000671   0.002710  -0.000000  -0.006760  -0.000902
   13  C  1 ZZ    0.000535   0.007506  -0.000000   0.030293   0.002759
   14  C  1 XY    0.000000  -0.000000  -0.000000  -0.000000  -0.000000
   15  C  1 XZ    0.000000  -0.000000  -0.000000  -0.000000  -0.000000
   16  C  1 YZ    0.000000  -0.000000   0.046620  -0.000000  -0.000000
   17  H  2  S   -0.001352   0.413919  -0.548260   0.263506  -0.004751
   18  H  2  S    0.002074  -0.173430   0.134316  -0.054312   0.045405
   19  H  2  S   -0.000046   0.004852  -0.009142   0.019792  -0.618714
   20  H  2  X    0.000000  -0.000000  -0.000000  -0.000000  -0.000000
   21  H  2  Y   -0.000808   0.025546  -0.008987   0.011503  -0.004250
   22  H  2  Z    0.000597  -0.014980   0.016433   0.008413   0.001268
   23  H  3  S   -0.001352   0.413919   0.548260   0.263506  -0.004751
   24  H  3  S    0.002074  -0.173430  -0.134316  -0.054312   0.045405
   25  H  3  S   -0.000046   0.004852   0.009142   0.019792  -0.618714
   26  H  3  X    0.000000  -0.000000  -0.000000  -0.000000  -0.000000
   27  H  3  Y    0.000808  -0.025546  -0.008987  -0.011503   0.004250
   28  H  3  Z    0.000597  -0.014980  -0.016433   0.008413   0.001268

                      6          7          8          9         10
                    0.0617     0.0629     0.0773     0.2867     0.2930
                     B1         B2         A1         B2         A1  
    1  C  1  S    0.000000   0.000000  -0.003827  -0.000000  -0.072714
    2  C  1  S    0.000000   0.000000   0.130651  -0.000000   0.139669
    3  C  1  S    0.000000   0.000000   0.016338  -0.000000   2.072361
    4  C  1  S    0.000000   0.000000   2.767663  -0.000000  -1.208921
    5  C  1  X    0.654780   0.000000  -0.000000  -0.000000  -0.000000
    6  C  1  Y    0.000000   0.114857  -0.000000   0.497614  -0.000000
    7  C  1  Z    0.000000   0.000000   0.139711  -0.000000   0.351815
    8  C  1  X    0.377986   0.000000  -0.000000  -0.000000  -0.000000
    9  C  1  Y    0.000000   0.007620  -0.000000   1.131559  -0.000000
   10  C  1  Z    0.000000   0.000000  -0.153706  -0.000000   0.882730
   11  C  1 XX    0.000000   0.000000   0.006009  -0.000000  -0.017239
   12  C  1 YY    0.000000   0.000000  -0.005231  -0.000000  -0.003658
   13  C  1 ZZ    0.000000   0.000000  -0.000778  -0.000000   0.020896
   14  C  1 XY    0.000000   0.000000  -0.000000  -0.000000  -0.000000
   15  C  1 XZ    0.029840   0.000000  -0.000000  -0.000000  -0.000000
   16  C  1 YZ    0.000000   0.007386  -0.000000   0.033533  -0.000000
   17  H  2  S    0.000000  -0.032650   0.018948   0.167551  -0.142067
   18  H  2  S    0.000000  -0.191004   0.377599   1.812289  -1.924181
   19  H  2  S    0.000000   2.188417  -1.915746  -0.800778   1.174638
   20  H  2  X    0.016335   0.000000  -0.000000  -0.000000  -0.000000
   21  H  2  Y    0.000000  -0.007265   0.019445   0.021471  -0.013161
   22  H  2  Z    0.000000   0.005094  -0.009436  -0.007238   0.011515
   23  H  3  S    0.000000   0.032650   0.018948  -0.167551  -0.142067
   24  H  3  S    0.000000   0.191004   0.377599  -1.812289  -1.924181
   25  H  3  S    0.000000  -2.188417  -1.915746   0.800778   1.174638
   26  H  3  X    0.016335   0.000000  -0.000000  -0.000000  -0.000000
   27  H  3  Y    0.000000  -0.007265  -0.019445   0.021471   0.013161
   28  H  3  Z    0.000000  -0.005094  -0.009436   0.007238   0.011515

                     11         12         13         14         15
                    0.6304     0.7049     0.7371     0.8436     0.8742
                     B2         A1         B1         A1         B2  
    1  C  1  S   -0.000000   0.029109  -0.000000  -0.197566  -0.000000
    2  C  1  S   -0.000000   0.408126  -0.000000  -0.783077  -0.000000
    3  C  1  S   -0.000000   0.292206  -0.000000   0.628686  -0.000000
    4  C  1  S   -0.000000   0.461045  -0.000000   0.533238  -0.000000
    5  C  1  X   -0.000000   0.000000  -1.615963  -0.000000  -0.000000
    6  C  1  Y   -0.529889   0.000000  -0.000000  -0.000000  -1.266441
    7  C  1  Z   -0.000000  -1.139644  -0.000000   0.785324  -0.000000
    8  C  1  X   -0.000000   0.000000   1.738738  -0.000000  -0.000000
    9  C  1  Y    1.333393   0.000000  -0.000000  -0.000000   2.186007
   10  C  1  Z   -0.000000   1.897102  -0.000000  -0.738597  -0.000000
   11  C  1 XX   -0.000000   0.064990  -0.000000   0.245391  -0.000000
   12  C  1 YY   -0.000000  -0.066654  -0.000000  -0.254982  -0.000000
   13  C  1 ZZ   -0.000000   0.001664  -0.000000   0.009591  -0.000000
   14  C  1 XY   -0.000000   0.000000  -0.000000  -0.000000  -0.000000
   15  C  1 XZ   -0.000000   0.000000  -0.011536  -0.000000  -0.000000
   16  C  1 YZ   -0.121523   0.000000  -0.000000  -0.000000   0.328379
   17  H  2  S    1.138359  -0.775095  -0.000000  -1.233144  -0.668197
   18  H  2  S   -0.976467   0.247955  -0.000000   1.480751   1.953007
   19  H  2  S    0.685379  -0.242143  -0.000000  -0.548765  -0.356643
   20  H  2  X   -0.000000   0.000000  -0.056757  -0.000000  -0.000000
   21  H  2  Y    0.013866  -0.019557  -0.000000   0.175522   0.146662
   22  H  2  Z    0.014967   0.015548  -0.000000   0.000663  -0.185515
   23  H  3  S   -1.138359  -0.775095  -0.000000  -1.233144   0.668197
   24  H  3  S    0.976467   0.247955  -0.000000   1.480751  -1.953007
   25  H  3  S   -0.685379  -0.242143  -0.000000  -0.548765   0.356643
   26  H  3  X   -0.000000   0.000000  -0.056757  -0.000000  -0.000000
   27  H  3  Y    0.013866   0.019557  -0.000000  -0.175522   0.146662
   28  H  3  Z   -0.014967   0.015548  -0.000000   0.000663   0.185515

                     16         17         18         19         20
                    1.0270     1.2044     1.2117     1.2880     1.7427
                     A1         A1         A2         B1         A1  
    1  C  1  S   -0.779565  -0.139211   0.000000   0.000000  -0.320851
    2  C  1  S   -3.562481  -0.571143   0.000000   0.000000  -1.263109
    3  C  1  S    5.813217   0.959293   0.000000   0.000000   2.113207
    4  C  1  S   -0.382690   0.058846   0.000000   0.000000   0.094535
    5  C  1  X    0.000000   0.000000   0.000000  -0.208689   0.000000
    6  C  1  Y    0.000000   0.000000   0.000000   0.000000   0.000000
    7  C  1  Z   -0.331849   0.199797   0.000000   0.000000  -0.086824
    8  C  1  X    0.000000   0.000000   0.000000  -0.024599   0.000000
    9  C  1  Y    0.000000   0.000000   0.000000   0.000000   0.000000
   10  C  1  Z    1.258128   0.251572   0.000000   0.000000   0.717395
   11  C  1 XX   -0.049758   0.302880   0.000000   0.000000  -0.967403
   12  C  1 YY    0.017044   0.329929   0.000000   0.000000   0.715501
   13  C  1 ZZ    0.032714  -0.632809   0.000000   0.000000   0.251902
   14  C  1 XY    0.000000   0.000000   0.648230   0.000000   0.000000
   15  C  1 XZ    0.000000   0.000000   0.000000   0.750786   0.000000
   16  C  1 YZ    0.000000   0.000000   0.000000   0.000000   0.000000
   17  H  2  S    0.135859  -0.340828   0.000000   0.000000  -1.148989
   18  H  2  S   -1.677290   0.053463   0.000000   0.000000   0.375614
   19  H  2  S    0.361051  -0.040246   0.000000   0.000000  -0.062019
   20  H  2  X    0.000000   0.000000  -0.365162   0.318177   0.000000
   21  H  2  Y   -0.140880  -0.204947   0.000000   0.000000   0.114298
   22  H  2  Z    0.157276  -0.284300   0.000000   0.000000  -0.138911
   23  H  3  S    0.135859  -0.340828   0.000000   0.000000  -1.148989
   24  H  3  S   -1.677290   0.053463   0.000000   0.000000   0.375614
   25  H  3  S    0.361051  -0.040246   0.000000   0.000000  -0.062019
   26  H  3  X    0.000000   0.000000   0.365162   0.318177   0.000000
   27  H  3  Y    0.140880   0.204947   0.000000   0.000000  -0.114298
   28  H  3  Z    0.157276  -0.284300   0.000000   0.000000  -0.138911

                     21         22         23         24         25
                    1.7546     1.9440     2.0054     2.0178     2.3091
                     B2         B2         A2         B1         A1  
    1  C  1  S    0.000000  -0.000000   0.000000   0.000000  -0.097512
    2  C  1  S    0.000000  -0.000000   0.000000   0.000000  -0.385063
    3  C  1  S    0.000000  -0.000000   0.000000   0.000000   0.768200
    4  C  1  S    0.000000  -0.000000   0.000000   0.000000  -0.005708
    5  C  1  X    0.000000  -0.000000   0.000000   0.259933   0.000000
    6  C  1  Y   -0.130033  -0.364832   0.000000   0.000000   0.000000
    7  C  1  Z    0.000000  -0.000000   0.000000   0.000000   0.145603
    8  C  1  X    0.000000  -0.000000   0.000000   0.213905   0.000000
    9  C  1  Y   -0.362718   0.601093   0.000000   0.000000   0.000000
   10  C  1  Z    0.000000  -0.000000   0.000000   0.000000   0.461044
   11  C  1 XX    0.000000  -0.000000   0.000000   0.000000  -0.119212
   12  C  1 YY    0.000000  -0.000000   0.000000   0.000000  -0.881192
   13  C  1 ZZ    0.000000  -0.000000   0.000000   0.000000   1.000404
   14  C  1 XY    0.000000  -0.000000   0.937824   0.000000   0.000000
   15  C  1 XZ    0.000000  -0.000000   0.000000   0.801943   0.000000
   16  C  1 YZ    0.092387   0.897996   0.000000   0.000000   0.000000
   17  H  2  S   -0.199665   1.029564   0.000000   0.000000  -0.151616
   18  H  2  S    0.011755  -0.818685   0.000000   0.000000  -0.158327
   19  H  2  S   -0.049326   0.233240   0.000000   0.000000   0.036106
   20  H  2  X    0.000000  -0.000000   0.727677  -0.778623   0.000000
   21  H  2  Y    0.512831  -0.290676   0.000000   0.000000  -0.516854
   22  H  2  Z    0.576124   0.252980   0.000000   0.000000  -0.665994
   23  H  3  S    0.199665  -1.029564   0.000000   0.000000  -0.151616
   24  H  3  S   -0.011755   0.818685   0.000000   0.000000  -0.158327
   25  H  3  S    0.049326  -0.233240   0.000000   0.000000   0.036106
   26  H  3  X    0.000000  -0.000000  -0.727677  -0.778623   0.000000
   27  H  3  Y    0.512831  -0.290676   0.000000   0.000000   0.516854
   28  H  3  Z   -0.576124  -0.252980   0.000000   0.000000  -0.665994

                     26         27
                    2.6719     2.7356
                     A1         B2  
    1  C  1  S   -0.269831   0.000000
    2  C  1  S   -1.563636   0.000000
    3  C  1  S   -0.953107   0.000000
    4  C  1  S    0.196736   0.000000
    5  C  1  X   -0.000000   0.000000
    6  C  1  Y   -0.000000   1.863278
    7  C  1  Z   -1.412649   0.000000
    8  C  1  X   -0.000000   0.000000
    9  C  1  Y   -0.000000   0.100459
   10  C  1  Z   -0.081279   0.000000
   11  C  1 XX    0.755567   0.000000
   12  C  1 YY   -0.587172   0.000000
   13  C  1 ZZ   -0.168396   0.000000
   14  C  1 XY   -0.000000   0.000000
   15  C  1 XZ   -0.000000   0.000000
   16  C  1 YZ   -0.000000   1.456058
   17  H  2  S    1.642030   2.073081
   18  H  2  S   -0.022955  -0.407236
   19  H  2  S   -0.208674  -0.065140
   20  H  2  X   -0.000000   0.000000
   21  H  2  Y    0.920144   0.890474
   22  H  2  Z   -0.690992  -0.751191
   23  H  3  S    1.642030  -2.073081
   24  H  3  S   -0.022955   0.407236
   25  H  3  S   -0.208674   0.065140
   26  H  3  X   -0.000000   0.000000
   27  H  3  Y   -0.920144   0.890474
   28  H  3  Z   -0.690992   0.751191
 ...... END OF ROHF CALCULATION ......
 STEP CPU TIME =     0.02 TOTAL CPU TIME =          0.1 (      0.0 MIN)
 TOTAL WALL CLOCK TIME=          0.1 SECONDS, CPU UTILIZATION IS    98.48%

     ----------------------------------------------------------------
     PROPERTY VALUES FOR THE ROHF  SELF-CONSISTENT FIELD WAVEFUNCTION
     ----------------------------------------------------------------

          -----------------
          ENERGY COMPONENTS
          -----------------

         WAVEFUNCTION NORMALIZATION =       1.0000000000

                ONE ELECTRON ENERGY =     -63.4795515153
                TWO ELECTRON ENERGY =      18.6068531643
           NUCLEAR REPULSION ENERGY =       5.9912725580
                                      ------------------
                       TOTAL ENERGY =     -38.8814257930

 ELECTRON-ELECTRON POTENTIAL ENERGY =      18.6068531643
  NUCLEUS-ELECTRON POTENTIAL ENERGY =    -102.2855186658
   NUCLEUS-NUCLEUS POTENTIAL ENERGY =       5.9912725580
                                      ------------------
             TOTAL POTENTIAL ENERGY =     -77.6873929435
               TOTAL KINETIC ENERGY =      38.8059671505
                 VIRIAL RATIO (V/T) =       2.0019445113

  ...... PI ENERGY ANALYSIS ......

 ENERGY ANALYSIS:
            FOCK ENERGY=    -26.2658452260
          BARE H ENERGY=    -63.4795515153
     ELECTRONIC ENERGY =    -44.8726983707
         KINETIC ENERGY=     38.8059671505
          N-N REPULSION=      5.9912725580
           TOTAL ENERGY=    -38.8814258127
        SIGMA PART(1+2)=    -44.8726983707
               (K,V1,2)=     38.8059671505   -102.2855186658     18.6068531446
           PI PART(1+2)=      0.0000000000
               (K,V1,2)=      0.0000000000      0.0000000000      0.0000000000
  SIGMA SKELETON, ERROR=    -38.8814258127     -0.0000000000
             MIXED PART= 0.00000E+00 0.00000E+00 0.00000E+00 0.00000E+00
 ...... END OF PI ENERGY ANALYSIS ......

          ---------------------------------------
          MULLIKEN AND LOWDIN POPULATION ANALYSES
          ---------------------------------------

     ATOMIC MULLIKEN POPULATION IN EACH MOLECULAR ORBITAL

                      1          2          3          4

                  2.000000   2.000000   2.000000   2.000000

    1             2.000035   1.283288   1.019255   1.829783
    2            -0.000017   0.358356   0.490372   0.085108
    3            -0.000017   0.358356   0.490372   0.085108

          MULLIKEN SPHERICAL HARMONIC POPULATIONS
       ATOM           S       P       D      F      G      H      I    TOTAL
    1 C             1.81    1.23    0.02   0.00   0.00   0.00   0.00    3.07
    2 H             0.45    0.01    0.00   0.00   0.00   0.00   0.00    0.47
    3 H             0.45    0.01    0.00   0.00   0.00   0.00   0.00    0.47

          MULLIKEN SPHERICAL HARMONIC POPULATIONS
       ATOM           S       P       D      F      G      H      I    TOTAL
    1 C             1.81    1.23    0.02   0.00   0.00   0.00   0.00    3.07
    2 H             0.45    0.01    0.00   0.00   0.00   0.00   0.00    0.47
    3 H             0.45    0.01    0.00   0.00   0.00   0.00   0.00    0.47

     ATOMIC SPIN POPULATION (ALPHA MINUS BETA)
       ATOM         MULL.POP.                    LOW.POP.
    1 C             0.000000                     0.000000
    2 H             0.000000                     0.000000
    3 H             0.000000                     0.000000

               ----- POPULATIONS IN EACH AO -----
                             MULLIKEN      LOWDIN
              1  C  1  S      2.00185     1.96162
              2  C  1  S      1.75167     0.70214
              3  C  1  S     -0.13463     0.32068
              4  C  1  S      0.01045     0.01571
              5  C  1  X      0.00000     0.00000
              6  C  1  Y      1.19011     0.88904
              7  C  1  Z      1.47600     1.14873
              8  C  1  X      0.00000     0.00000
              9  C  1  Y     -0.19770     0.27807
             10  C  1  Z      0.00091     0.42434
             11  C  1 XX      0.00363     0.15188
             12  C  1 YY      0.00322     0.20004
             13  C  1 ZZ      0.00000     0.17407
             14  C  1 XY      0.00000     0.00000
             15  C  1 XZ      0.02684     0.00000
             16  C  1 YZ      0.00000     0.07311
             17  H  2  S      1.24977     0.61713
             18  H  2  S     -0.34759     0.12884
             19  H  2  S      0.00213     0.01746
             20  H  2  X      0.00000     0.00000
             21  H  2  Y      0.01647     0.03410
             22  H  2  Z      0.01305     0.03276
             23  H  3  S      1.24977     0.61713
             24  H  3  S     -0.34759     0.12884
             25  H  3  S      0.00213     0.01746
             26  H  3  X      0.00000     0.00000
             27  H  3  Y      0.01647     0.03410
             28  H  3  Z      0.01305     0.03276

          ----- MULLIKEN ATOMIC OVERLAP POPULATIONS -----
          (OFF-DIAGONAL ELEMENTS NEED TO BE MULTIPLIED BY 2)

             1           2           3

    1    5.4493424
    2    0.3415091   0.6268589
    3    0.3415091  -0.0345483   0.6268589

          TOTAL MULLIKEN AND LOWDIN ATOMIC POPULATIONS
       ATOM         MULL.POP.    CHARGE          LOW.POP.     CHARGE
    1 C             6.132361   -0.132361         6.339436   -0.339436
    2 H             0.933820    0.066180         0.830282    0.169718
    3 H             0.933820    0.066180         0.830282    0.169718

          MULLIKEN SPHERICAL HARMONIC POPULATIONS
       ATOM           S       P       D      F      G      H      I    TOTAL
    1 C             3.63    2.47    0.03   0.00   0.00   0.00   0.00    6.13
    2 H             0.90    0.03    0.00   0.00   0.00   0.00   0.00    0.93
    3 H             0.90    0.03    0.00   0.00   0.00   0.00   0.00    0.93

          -------------------------------
          BOND ORDER AND VALENCE ANALYSIS     BOND ORDER THRESHOLD=0.050
          -------------------------------

                   BOND                       BOND                       BOND
  ATOM PAIR DIST  ORDER      ATOM PAIR DIST  ORDER      ATOM PAIR DIST  ORDER
    1   2  1.117  0.965        1   3  1.117  0.965

                       TOTAL       BONDED        FREE
      ATOM            VALENCE     VALENCE     VALENCE
    1 C                 1.929       1.929      -0.000
    2 H                 0.956       0.956       0.000
    3 H                 0.956       0.956       0.000

          -----------------------------------------
          ATOMIC SPIN DENSITY AT THE NUCLEUS (A.U.)
          -----------------------------------------
                            SPIN DENS    ALPHA DENS     BETA DENS
    1  C            6.0     0.0000000      60.74736      60.74736
    2  H            1.0     0.0000000       0.18677       0.18677
    3  H            1.0     0.0000000       0.18677       0.18677

          ---------------------
          ELECTROSTATIC MOMENTS
          ---------------------

 POINT   1           X           Y           Z (BOHR)    CHARGE
                -0.000000    0.000000    0.190141       -0.00 (A.U.)
         DX          DY          DZ         /D/  (DEBYE)
    -0.000000    0.000000    1.981655    1.981655
 ...... END OF PROPERTY EVALUATION ......
 STEP CPU TIME =     0.01 TOTAL CPU TIME =          0.1 (      0.0 MIN)
 TOTAL WALL CLOCK TIME=          0.1 SECONDS, CPU UTILIZATION IS    98.57%

     --------------------------------------------
     PARTIAL TWO ELECTRON INTEGRAL TRANSFORMATION
     --------------------------------------------

 NUMBER OF CORE MOLECULAR ORBITALS     =    0
 NUMBER OF OCCUPIED MOLECULAR ORBITALS =   27
 TOTAL NUMBER OF MOLECULAR ORBITALS    =   27
 TOTAL NUMBER OF ATOMIC ORBITALS       =   28
 THRESHOLD FOR KEEPING TRANSFORMED 2E- INTEGRALS = 1.000E-09
 AO INTEGRALS WILL BE READ IN FROM DISK...

 PLAN A: REQUIREMENTS FOR FULLY IN-MEMORY TRANSFORMATION:
 # OF WORDS AVAILABLE =             49999999
 # OF WORDS NEEDED    =               370914

 CHOOSING IN MEMORY PARTIAL TRANSFORMATION...
 TOTAL NUMBER OF TRANSFORMED 2E- INTEGRALS KEPT =        20255
 ... END OF INTEGRAL TRANSFORMATION ...
 STEP CPU TIME =     0.01 TOTAL CPU TIME =          0.1 (      0.0 MIN)
 TOTAL WALL CLOCK TIME=          0.1 SECONDS, CPU UTILIZATION IS    98.74%

     --------------------------------------------------
          FCIDUMP INTEGRAL FILE GENERATION
          WRITTEN BY J. EMILIANO DEUSTUA
     --------------------------------------------------
    WRITING INTEGRALS FROM SERIAL TRANSFORMATION

               580000  WORDS OF DYNAMIC MEMORY USED
 EXECUTION OF GAMESS TERMINATED NORMALLY 14:21:35 10-SEP-2023    
 DDI: 263640 bytes (0.3 MB / 0 MWords) used by master data server.

 ----------------------------------------
 CPU timing information for all processes
 ========================================
 0: 0.140 + 0.47 = 0.187
 ----------------------------------------
 ddikick.x: exited gracefully.
----- accounting info -----
Files used on the master node coupled.cem.msu.edu were:
-rw-r--r-- 1 gururang piecuch    1835 Sep 10 14:21 /scratch/gururang/ch2-avdz.F05
-rw-r--r-- 1 gururang piecuch  360032 Sep 10 14:21 /scratch/gururang/ch2-avdz.F08
-rw-r--r-- 1 gururang piecuch  363064 Sep 10 14:21 /scratch/gururang/ch2-avdz.F09
-rw-r--r-- 1 gururang piecuch 1865040 Sep 10 14:21 /scratch/gururang/ch2-avdz.F10
Sun Sep 10 14:21:37 EDT 2023
0.177u 0.093s 0:01.55 16.7%	0+0k 0+8io 0pf+0w
