 &FCI NORB=27,NELEC=8,MS2=0
  ORBSYM=1,1,4,1,1,3,4,1,4,1,4,1,3,1,4,1,1,2,3,1,4,4,2,3,1,1,4,
  ISYM=1 UHF=.FALSE.
 &END
  0.3507354469127009D+01   1   1   1   1
  0.2824122011181744D+00   2   1   1   1
  0.7302527648879238D+00   2   2   1   1
  0.6276141038603000D+00   3   3   1   1
 -0.1394877945201389D+00   4   1   1   1
 -0.6459863311376562D-01   4   2   1   1
  0.7154969299531742D+00   4   4   1   1
 -0.4060477421177225D-01   5   1   1   1
 -0.4700972970916983D-01   5   2   1   1
  0.3337941671232787D-01   5   4   1   1
  0.1403240063624796D+00   5   5   1   1
  0.6192303547595516D+00   6   6   1   1
 -0.5584394418068426D-01   7   3   1   1
  0.1532058676598013D+00   7   7   1   1
  0.4739385645492022D-01   8   1   1   1
  0.7341508845463678D-01   8   2   1   1
  0.2909401043424199D-01   8   4   1   1
 -0.3791102934133905D-01   8   5   1   1
  0.1754964791197622D+00   8   8   1   1
  0.1647761948876248D+00   9   3   1   1
 -0.4431988743185299D-01   9   7   1   1
  0.3825105046469930D+00   9   9   1   1
  0.1258947222077811D+00  10   1   1   1
  0.1646107229795548D+00  10   2   1   1
  0.5943510667503316D-01  10   4   1   1
 -0.3185787407418146D-01  10   5   1   1
  0.7772348871362023D-01  10   8   1   1
  0.3563042194412002D+00  10  10   1   1
 -0.1136219352161608D+00  11   3   1   1
  0.4652054571950469D-01  11   7   1   1
  0.4082191017370229D-03  11   9   1   1
  0.4090450611373088D+00  11  11   1   1
 -0.9339051933436200D-01  12   1   1   1
 -0.1384476437019243D-01  12   2   1   1
  0.2746466826298291D+00  12   4   1   1
  0.2955393879096807D-01  12   5   1   1
  0.3793776439243114D-01  12   8   1   1
  0.3830518871678742D-01  12  10   1   1
  0.5923434473999452D+00  12  12   1   1
  0.3373932663316007D+00  13   6   1   1
  0.8291566569726516D+00  13  13   1   1
 -0.2317207272544594D-01  14   1   1   1
  0.1622293586500155D-01  14   2   1   1
  0.1711816945173634D+00  14   4   1   1
  0.1495500711033618D-01  14   5   1   1
  0.6929642688910428D-02  14   8   1   1
  0.1239027402187604D+00  14  10   1   1
  0.1394241688230549D+00  14  12   1   1
  0.5399561443926029D+00  14  14   1   1
 -0.2238075608839073D+00  15   3   1   1
  0.4353348145033911D-01  15   7   1   1
 -0.2315135775870326D+00  15   9   1   1
  0.8027582070493285D-01  15  11   1   1
  0.6687287984388169D+00  15  15   1   1
  0.2518785367500206D+00  16   1   1   1
  0.2421452465185215D+00  16   2   1   1
 -0.4922847857878176D-01  16   4   1   1
 -0.4490351184529199D-01  16   5   1   1
  0.6899382977519369D-01  16   8   1   1
  0.1715677800283615D+00  16  10   1   1
 -0.2457126862662765D-02  16  12   1   1
  0.4050107706056877D-02  16  14   1   1
  0.5960038127138045D+00  16  16   1   1
  0.2425058232394946D-01  17   1   1   1
  0.1065084472634251D-01  17   2   1   1
 -0.4655010253611595D-01  17   4   1   1
 -0.4412799129632232D-02  17   5   1   1
  0.7306372172228535D-03  17   8   1   1
 -0.9689839051883475D-02  17  10   1   1
 -0.5531717202433731D-01  17  12   1   1
 -0.2071899423101120D-01  17  14   1   1
 -0.1205746790249526D-02  17  16   1   1
  0.5597345233003033D+00  17  17   1   1
  0.5517011732499866D+00  18  18   1   1
 -0.3019494604145547D-01  19   6   1   1
 -0.5862456485795312D-01  19  13   1   1
  0.5800535599679375D+00  19  19   1   1
  0.3604268587016787D-01  20   1   1   1
  0.1527319568280422D-01  20   2   1   1
 -0.2869316051042901D-01  20   4   1   1
 -0.5584774946692964D-02  20   5   1   1
  0.5752300369982980D-02  20   8   1   1
  0.3646120644951836D-01  20  10   1   1
 -0.6166959257449896D-01  20  12   1   1
  0.7882983932967746D-01  20  14   1   1
  0.1741272824269553D-01  20  16   1   1
 -0.2638199681087947D-01  20  17   1   1
  0.5848554045558381D+00  20  20   1   1
  0.2334094072597352D-01  21   3   1   1
 -0.3107598593626925D-02  21   7   1   1
  0.1844133460092498D-01  21   9   1   1
 -0.1973318355271934D-01  21  11   1   1
 -0.3849677110120300D-01  21  15   1   1
  0.4254673913896800D+00  21  21   1   1
  0.1706963438664006D-01  22   3   1   1
  0.1406452547450951D-02  22   7   1   1
 -0.3997018027944106D-01  22   9   1   1
 -0.7878638195497134D-01  22  11   1   1
  0.9914494833512094D-01  22  15   1   1
 -0.1570705754804183D-01  22  21   1   1
  0.5713062308403208D+00  22  22   1   1
  0.1103012642556575D+00  23  18   1   1
  0.5063821544863276D+00  23  23   1   1
  0.3515478135172796D-01  24   6   1   1
  0.7895089060809474D-01  24  13   1   1
  0.9358442670218890D-01  24  19   1   1
  0.4884505245808809D+00  24  24   1   1
  0.1152830059185522D-01  25   1   1   1
  0.3479009621084660D-02  25   2   1   1
 -0.2924683559359332D-01  25   4   1   1
 -0.8057186631953549D-03  25   5   1   1
 -0.2096596445802368D-02  25   8   1   1
 -0.7885092084314493D-02  25  10   1   1
 -0.3334859111438613D-01  25  12   1   1
 -0.5264536576065883D-01  25  14   1   1
  0.8365375534716517D-02  25  16   1   1
 -0.1089466825420124D+00  25  17   1   1
 -0.1959728814563154D-01  25  20   1   1
  0.5089326784984318D+00  25  25   1   1
 -0.1606635713529618D+00  26   1   1   1
 -0.1163541882076935D+00  26   2   1   1
 -0.6373475006793858D-01  26   4   1   1
  0.1453259005628496D-01  26   5   1   1
 -0.4015681483917336D-01  26   8   1   1
 -0.1055553266887613D+00  26  10   1   1
 -0.1212552215284781D+00  26  12   1   1
 -0.1411138726766326D+00  26  14   1   1
 -0.1988641885772023D+00  26  16   1   1
  0.1905415674662818D-01  26  17   1   1
  0.3183766248682493D-01  26  20   1   1
  0.9637131371264152D-02  26  25   1   1
  0.6650876856258465D+00  26  26   1   1
 -0.1393984532929423D+00  27   3   1   1
  0.2490891610740295D-01  27   7   1   1
 -0.1034522344530986D+00  27   9   1   1
  0.1083490023930354D+00  27  11   1   1
  0.2828164451446556D+00  27  15   1   1
 -0.2411517683726300D-01  27  21   1   1
 -0.4397059705511940D-01  27  22   1   1
  0.7350960669335166D+00  27  27   1   1
  0.3731715510091299D-01   2   1   2   1
  0.5207077106419434D-02   2   2   2   1
  0.1969457704152419D-02   3   3   2   1
 -0.1451534043370584D-01   4   1   2   1
 -0.6640222027203317D-02   4   2   2   1
  0.9842144523527120D-02   4   4   2   1
 -0.5253090268126595D-02   5   1   2   1
 -0.1097871187093453D-02   5   2   2   1
  0.1060620389639589D-02   5   4   2   1
  0.2817700424401071D-03   5   5   2   1
  0.3753212575808143D-02   6   6   2   1
 -0.4357233378496283D-03   7   3   2   1
  0.2947000542333057D-04   7   7   2   1
  0.6800136570795591D-02   8   1   2   1
  0.8303873103928456D-03   8   2   2   1
 -0.1148425810475888D-03   8   4   2   1
 -0.1591681743735669D-04   8   5   2   1
 -0.6959597218755260D-05   8   8   2   1
  0.3126599402613370D-02   9   3   2   1
 -0.3470940313285664D-03   9   7   2   1
  0.1778067928487611D-02   9   9   2   1
  0.1821362876253082D-01  10   1   2   1
  0.2508623545794462D-02  10   2   2   1
 -0.2671991486623606D-03  10   4   2   1
 -0.3197709426616107D-03  10   5   2   1
  0.4338637201112807D-03  10   8   2   1
  0.1052979661971173D-02  10  10   2   1
 -0.4489018219550487D-03  11   3   2   1
  0.1806194770035030D-03  11   7   2   1
 -0.7867879632732080D-03  11   9   2   1
  0.6857265391960718D-03  11  11   2   1
 -0.7992915517148896D-02  12   1   2   1
 -0.3433539649028960D-02  12   2   2   1
  0.8301603799269355D-02  12   4   2   1
  0.9598719736014460D-03  12   5   2   1
 -0.5662509789743390D-04  12   8   2   1
  0.1594771820306183D-03  12  10   2   1
  0.8633680768990298D-02  12  12   2   1
  0.6968444931933649D-02  13   6   2   1
  0.1340892025919151D-01  13  13   2   1
  0.3307335387076550D-03  14   1   2   1
 -0.1246797895666838D-02  14   2   2   1
  0.5049542859839410D-02  14   4   2   1
  0.4470293423718619D-03  14   5   2   1
  0.2626830196180716D-03  14   8   2   1
  0.3343456134768386D-03  14  10   2   1
  0.6421703235943800D-02  14  12   2   1
  0.2873302185179122D-02  14  14   2   1
 -0.6327567765926637D-02  15   3   2   1
  0.1134875066198218D-02  15   7   2   1
 -0.4226650041855772D-02  15   9   2   1
  0.3244062667332458D-02  15  11   2   1
  0.8955941134342667D-02  15  15   2   1
  0.3345705993440486D-01  16   1   2   1
  0.6270070440355012D-02  16   2   2   1
 -0.3439101315921456D-02  16   4   2   1
 -0.9367405525622317D-03  16   5   2   1
  0.1013649495244059D-02  16   8   2   1
  0.2579759485467792D-02  16  10   2   1
 -0.2989204702629960D-02  16  12   2   1
 -0.1208228106763648D-02  16  14   2   1
  0.5308676787932957D-02  16  16   2   1
  0.2152019951630281D-02  17   1   2   1
 -0.1949843743318511D-03  17   2   2   1
 -0.4794143851682496D-02  17   4   2   1
 -0.2339150604069848D-03  17   5   2   1
 -0.3988329857649429D-03  17   8   2   1
 -0.1009153682566339D-02  17  10   2   1
 -0.2821671645484648D-02  17  12   2   1
 -0.2463686913998662D-02  17  14   2   1
  0.4519203966578391D-03  17  16   2   1
  0.7169129861927278D-03  17  17   2   1
 -0.6468814260283971D-03  18  18   2   1
 -0.3793045100468096D-02  19   6   2   1
 -0.3780752514081560D-02  19  13   2   1
  0.8426277602911056D-03  19  19   2   1
  0.4513692248690721D-02  20   1   2   1
  0.1306643179447847D-02  20   2   2   1
 -0.1265333133752590D-03  20   4   2   1
 -0.1586904406458386D-03  20   5   2   1
  0.2499720620915073D-03  20   8   2   1
  0.9407248376675608D-03  20  10   2   1
 -0.6083350650441100D-03  20  12   2   1
  0.8622472607477096D-03  20  14   2   1
  0.1323649219063059D-02  20  16   2   1
  0.3956733572944642D-04  20  17   2   1
  0.1060002429968422D-02  20  20   2   1
  0.3923209714641647D-03  21   3   2   1
 -0.5095475870609047D-04  21   7   2   1
  0.1040686835928110D-02  21   9   2   1
  0.3939037357497291D-03  21  11   2   1
 -0.1526293260790855D-02  21  15   2   1
 -0.1665743213006570D-02  21  21   2   1
 -0.3225234797528521D-02  22   3   2   1
  0.5508829406156105D-03  22   7   2   1
 -0.2473909897621194D-02  22   9   2   1
  0.7904678701340153D-03  22  11   2   1
  0.4151354056166878D-02  22  15   2   1
 -0.1251784290293377D-02  22  21   2   1
  0.8587819131182629D-03  22  22   2   1
  0.1777660678356189D-02  23  18   2   1
  0.2929476586957193D-03  23  23   2   1
 -0.2903941886379922D-03  24   6   2   1
  0.6336955538484315D-03  24  13   2   1
  0.1199869390371361D-02  24  19   2   1
 -0.4855447068931132D-03  24  24   2   1
  0.8057276813765631D-03  25   1   2   1
  0.7902613183180982D-03  25   2   2   1
  0.7322432593961130D-03  25   4   2   1
 -0.3974662684044124D-04  25   5   2   1
  0.2359433219963724D-03  25   8   2   1
  0.8030918169527071D-03  25  10   2   1
  0.2121124570095127D-04  25  12   2   1
  0.4039588005964696D-03  25  14   2   1
  0.9467434218315800D-03  25  16   2   1
 -0.1593294899846676D-02  25  17   2   1
 -0.3043451647223078D-03  25  20   2   1
  0.3440460015330881D-03  25  25   2   1
 -0.2583309050569202D-01  26   1   2   1
 -0.5317418045668427D-02  26   2   2   1
 -0.2173368339280837D-02  26   4   2   1
  0.5461191966549599D-03  26   5   2   1
 -0.1410425352919404D-02  26   8   2   1
 -0.3504255128911833D-02  26  10   2   1
 -0.4123287812956845D-02  26  12   2   1
 -0.2629444871394182D-02  26  14   2   1
 -0.4523411488738046D-02  26  16   2   1
  0.1183578403784925D-02  26  17   2   1
  0.4059746811154912D-03  26  20   2   1
 -0.6315185965489307D-03  26  25   2   1
  0.6203109359351353D-02  26  26   2   1
 -0.5537998719652269D-02  27   3   2   1
  0.9341390606145021D-03  27   7   2   1
 -0.3586409444426273D-02  27   9   2   1
  0.4054348301770475D-02  27  11   2   1
  0.8194889738616115D-02  27  15   2   1
 -0.8846947989260619D-03  27  21   2   1
  0.7846611146622934D-03  27  22   2   1
  0.1006031061390915D-01  27  27   2   1
  0.5740493794673456D+00   2   2   2   2
  0.5300878836470956D+00   3   3   2   2
 -0.1403376799997418D-01   4   1   2   2
  0.3810754083666851D-01   4   2   2   2
  0.4744055677056067D+00   4   4   2   2
 -0.1231943091735276D-02   5   1   2   2
 -0.2128774791521530D-01   5   2   2   2
  0.1598091019918850D-01   5   4   2   2
  0.1330957653777660D+00   5   5   2   2
  0.4633519197354816D+00   6   6   2   2
 -0.3655075161811323D-01   7   3   2   2
  0.1522129106607497D+00   7   7   2   2
 -0.4519069161427548D-03   8   1   2   2
  0.4273940749541701D-01   8   2   2   2
  0.1750708018357154D-01   8   4   2   2
 -0.3839870142526808D-01   8   5   2   2
  0.1746512193744577D+00   8   8   2   2
  0.5575212786913430D-01   9   3   2   2
 -0.3365228813600819D-01   9   7   2   2
  0.3322133186004380D+00   9   9   2   2
 -0.1057202541678480D-02  10   1   2   2
  0.7768684852964128D-01  10   2   2   2
  0.2674620011256126D-01  10   4   2   2
 -0.2505192524786057D-01  10   5   2   2
  0.6259066096043042D-01  10   8   2   2
  0.3214872052408698D+00  10  10   2   2
 -0.9187993771968984D-01  11   3   2   2
  0.3953543141072494D-01  11   7   2   2
  0.1863535908055583D-01  11   9   2   2
  0.3778132719504477D+00  11  11   2   2
 -0.1320356345738367D-01  12   1   2   2
  0.1832938287293100D-01  12   2   2   2
  0.9746624998429027D-01  12   4   2   2
  0.1222069789847727D-01  12   5   2   2
  0.3211999357720934D-01  12   8   2   2
  0.1544511342388245D-01  12  10   2   2
  0.4055794057309728D+00  12  12   2   2
  0.1333512978496042D+00  13   6   2   2
  0.4813714124815115D+00  13  13   2   2
 -0.8597650567850851D-02  14   1   2   2
 -0.3699271917632824D-02  14   2   2   2
  0.4888858720082612D-01  14   4   2   2
  0.7988127964047791D-02  14   5   2   2
 -0.6590801589622525D-02  14   8   2   2
  0.9364251345967395D-01  14  10   2   2
 -0.4014403561104246D-02  14  12   2   2
  0.4580040902162338D+00  14  14   2   2
 -0.3943225971812878D-01  15   3   2   2
  0.1053543586845811D-01  15   7   2   2
 -0.1195647545911089D+00  15   9   2   2
 -0.4743635211072003D-02  15  11   2   2
  0.4546510770198346D+00  15  15   2   2
  0.3240434292184590D-02  16   1   2   2
  0.7440871248325182D-01  16   2   2   2
 -0.2324661143318820D-01  16   4   2   2
 -0.2313637862070846D-01  16   5   2   2
  0.3477537077844472D-01  16   8   2   2
  0.9456627914082749D-01  16  10   2   2
  0.2493180423479627D-01  16  12   2   2
  0.1548185132743829D-01  16  14   2   2
  0.4465874565691497D+00  16  16   2   2
  0.2601673450856914D-02  17   1   2   2
  0.2160078632522826D-01  17   2   2   2
  0.3769255455161820D-01  17   4   2   2
 -0.7848752769874998D-03  17   5   2   2
  0.7381182633959166D-02  17   8   2   2
  0.8218965266809160D-02  17  10   2   2
 -0.1692942975594403D-01  17  12   2   2
  0.1587755821526251D-01  17  14   2   2
 -0.1255020124168646D-01  17  16   2   2
  0.4986081122327962D+00  17  17   2   2
  0.5082329855103259D+00  18  18   2   2
  0.4106250275518052D-01  19   6   2   2
 -0.1470300550363454D-02  19  13   2   2
  0.5000394301401800D+00  19  19   2   2
  0.1371798785814158D-02  20   1   2   2
 -0.6375763174376785D-02  20   2   2   2
 -0.1347246857966439D-01  20   4   2   2
 -0.1119544913074857D-02  20   5   2   2
  0.1071627892061819D-02  20   8   2   2
  0.3922026604880932D-02  20  10   2   2
 -0.2561776118759228D-01  20  12   2   2
  0.2281750643993029D-01  20  14   2   2
 -0.1063089871536241D-01  20  16   2   2
 -0.1182272467717144D-01  20  17   2   2
  0.4874356242345561D+00  20  20   2   2
  0.8641742899777535D-02  21   3   2   2
 -0.1647155600135266D-02  21   7   2   2
 -0.9734084894728006D-02  21   9   2   2
 -0.3025970275201739D-01  21  11   2   2
 -0.4057153853116183D-02  21  15   2   2
  0.4697974997745231D+00  21  21   2   2
  0.4304037816990856D-01  22   3   2   2
 -0.4506525353561987D-02  22   7   2   2
  0.1334576154786436D-01  22   9   2   2
 -0.5671894518881676D-01  22  11   2   2
  0.1014336214238104D-01  22  15   2   2
  0.7779865407162107D-02  22  21   2   2
  0.4944884338794278D+00  22  22   2   2
  0.1706680102299693D-01  23  18   2   2
  0.4656700185877594D+00  23  23   2   2
  0.1499037693814209D-01  24   6   2   2
  0.4047387874345340D-01  24  13   2   2
  0.1704251997899753D-01  24  19   2   2
  0.4691331574045947D+00  24  24   2   2
  0.1929731091090990D-02  25   1   2   2
 -0.2072910617051736D-02  25   2   2   2
 -0.2006619195961785D-01  25   4   2   2
 -0.1312639323471310D-03  25   5   2   2
 -0.3088758787562123D-02  25   8   2   2
 -0.1203139103865244D-01  25  10   2   2
 -0.2279228925450743D-01  25  12   2   2
 -0.3474281948987656D-01  25  14   2   2
 -0.8898774573350976D-02  25  16   2   2
 -0.2380869165649475D-01  25  17   2   2
 -0.4727941748256304D-02  25  20   2   2
  0.4661191047824819D+00  25  25   2   2
  0.5515777952502370D-02  26   1   2   2
  0.3069374674612869D-02  26   2   2   2
  0.1876320319554294D-02  26   4   2   2
  0.2501734825638891D-02  26   5   2   2
 -0.5518143935323117D-02  26   8   2   2
 -0.1679878545151034D-01  26  10   2   2
 -0.1643048075506569D-01  26  12   2   2
 -0.7146620327867820D-01  26  14   2   2
 -0.7993990923228042D-01  26  16   2   2
  0.6477721770866612D-02  26  17   2   2
  0.1834925976199303D-02  26  20   2   2
  0.1080386082151508D-01  26  25   2   2
  0.5208711257222951D+00  26  26   2   2
 -0.4477070032549754D-02  27   3   2   2
  0.2019283187657809D-02  27   7   2   2
 -0.1911772336554866D-01  27   9   2   2
  0.6558833184457512D-02  27  11   2   2
  0.1046054111047452D+00  27  15   2   2
 -0.5733325544257636D-02  27  21   2   2
 -0.6500162273505611D-02  27  22   2   2
  0.5083827764899946D+00  27  27   2   2
  0.1048424889516616D-01   3   1   3   1
 -0.1494585037349362D-01   3   2   3   1
  0.2560988992598085D-02   4   3   3   1
  0.1135338578335064D-02   5   3   3   1
 -0.1813748113812471D-02   7   1   3   1
  0.1973501669154342D-02   7   2   3   1
 -0.4142616479795893D-03   7   4   3   1
 -0.8442089399672982D-03   7   5   3   1
 -0.1696086946331731D-02   8   3   3   1
  0.8558322648644973D-03   8   7   3   1
  0.7529907939070654D-02   9   1   3   1
 -0.6005432785152396D-02   9   2   3   1
  0.5297845321819159D-02   9   4   3   1
  0.1032175377796467D-02   9   5   3   1
 -0.1404570668852601D-02   9   8   3   1
 -0.2017506596143810D-02  10   3   3   1
  0.8683437898344644D-03  10   7   3   1
 -0.3324722797164180D-02  10   9   3   1
 -0.6031228153615988D-02  11   1   3   1
  0.4191059209169986D-02  11   2   3   1
  0.3280688109843673D-02  11   4   3   1
 -0.6578993672921292D-03  11   5   3   1
  0.1559543799381543D-02  11   8   3   1
  0.3207199609320309D-02  11  10   3   1
 -0.8745413194902648D-03  12   3   3   1
 -0.1541412651226133D-03  12   7   3   1
  0.7938199927365632D-03  12   9   3   1
  0.8636429027894838D-03  12  11   3   1
  0.5473341300361762D-02  14   3   3   1
 -0.8188962442750479D-03  14   7   3   1
  0.1396587521086897D-02  14   9   3   1
 -0.2745101401819963D-02  14  11   3   1
 -0.1624043166168903D-01  15   1   3   1
  0.7817720807997582D-02  15   2   3   1
 -0.7362585205008765D-02  15   4   3   1
 -0.1595631818507180D-02  15   5   3   1
  0.1290360393317600D-02  15   8   3   1
  0.4026025883974729D-02  15  10   3   1
 -0.4593457595619759D-02  15  12   3   1
 -0.2137918636702834D-02  15  14   3   1
 -0.6824667427428585D-02  16   3   3   1
  0.1057876493860383D-02  16   7   3   1
 -0.4867610921770717D-02  16   9   3   1
  0.3819829198794757D-02  16  11   3   1
  0.1085941301609523D-01  16  15   3   1
  0.4470939545958843D-02  17   3   3   1
 -0.5604635630329055D-03  17   7   3   1
  0.2472109969469422D-02  17   9   3   1
  0.1103359296933113D-02  17  11   3   1
 -0.2185924121187741D-02  17  15   3   1
 -0.8365911329104039D-02  18   6   3   1
 -0.5773904698115312D-02  18  13   3   1
 -0.2858894543349367D-02  19  18   3   1
  0.5021802530312182D-02  20   3   3   1
 -0.8141020812935535D-03  20   7   3   1
  0.4211859601013620D-02  20   9   3   1
  0.8251062886151536D-03  20  11   3   1
 -0.4814493435492402D-02  20  15   3   1
  0.1904402862557271D-02  21   1   3   1
 -0.3931889359146630D-03  21   2   3   1
  0.8452098258450848D-03  21   4   3   1
  0.1373964770034767D-03  21   5   3   1
 -0.3284934846165455D-04  21   8   3   1
 -0.1342921666060842D-02  21  10   3   1
  0.1683745967936922D-02  21  12   3   1
 -0.2809857088309485D-02  21  14   3   1
 -0.4282618895638905D-03  21  16   3   1
 -0.5371655469580594D-02  21  17   3   1
 -0.8024188711193013D-03  21  20   3   1
 -0.2991194094515938D-02  22   1   3   1
 -0.2481040348369816D-02  22   2   3   1
 -0.7796637328168531D-02  22   4   3   1
 -0.1965959741210403D-03  22   5   3   1
 -0.1146759457849706D-02  22   8   3   1
 -0.3304130076554238D-02  22  10   3   1
 -0.5056342138151228D-02  22  12   3   1
 -0.4942984442941563D-02  22  14   3   1
 -0.2397387994163108D-02  22  16   3   1
  0.2133617155913045D-02  22  17   3   1
  0.1004531085609809D-02  22  20   3   1
 -0.5244878357375179D-02  23   6   3   1
 -0.5580531670396473D-02  23  13   3   1
  0.4750876172186036D-02  23  19   3   1
  0.3887698362976743D-02  24  18   3   1
 -0.2817920013681003D-02  24  23   3   1
 -0.4488870490747856D-02  25   3   3   1
  0.7783596527145271D-03  25   7   3   1
 -0.3846478121182708D-02  25   9   3   1
  0.7810330908805977D-03  25  11   3   1
  0.5604357357586100D-02  25  15   3   1
 -0.4031233265907789D-02  25  21   3   1
  0.1668299316741815D-02  25  22   3   1
  0.2139160465104610D-02  26   3   3   1
 -0.4687223603950018D-03  26   7   3   1
  0.3188781424749269D-02  26   9   3   1
  0.1054473959604418D-02  26  11   3   1
 -0.6571063429771170D-02  26  15   3   1
  0.1109439756006800D-02  26  21   3   1
 -0.4129580554656107D-02  26  22   3   1
 -0.1858916286987902D-01  27   1   3   1
  0.3843898714436368D-02  27   2   3   1
  0.4494719676242879D-03  27   4   3   1
 -0.5135371506107503D-03  27   5   3   1
  0.1088912805688815D-02  27   8   3   1
  0.3493747959740810D-02  27  10   3   1
 -0.7627892760794170D-03  27  12   3   1
  0.2504918404354491D-02  27  14   3   1
  0.7277321692418983D-02  27  16   3   1
 -0.2012578959999690D-02  27  17   3   1
  0.2190504046558112D-02  27  20   3   1
  0.2485069649225620D-02  27  25   3   1
 -0.8706334727850280D-02  27  26   3   1
  0.1426310636620519D+00   3   2   3   2
  0.1939981179800179D-01   4   3   3   2
 -0.1742467639893312D-02   5   3   3   2
  0.2525021427797855D-02   7   1   3   2
 -0.1382863983936617D-01   7   2   3   2
 -0.1076316993984390D-02   7   4   3   2
  0.1317986670301449D-01   7   5   3   2
  0.6932748010446459D-02   8   3   3   2
 -0.1369964739110628D-01   8   7   3   2
 -0.1000353508263093D-01   9   1   3   2
  0.1373420868735273D-01   9   2   3   2
 -0.4412119821990089D-01   9   4   3   2
 -0.9006991582693833D-02   9   5   3   2
  0.1765827189375035D-01   9   8   3   2
 -0.2038863292167949D-01  10   3   3   2
 -0.8503573106050190D-02  10   7   3   2
  0.4767760635468311D-01  10   9   3   2
  0.7551080584892863D-02  11   1   3   2
 -0.4108368158829202D-01  11   2   3   2
 -0.4669499654001956D-01  11   4   3   2
  0.6620035994236429D-02  11   5   3   2
 -0.1763300498513819D-01  11   8   3   2
 -0.2960425825771587D-01  11  10   3   2
  0.3378425285633001D-01  12   3   3   2
 -0.1167609562516022D-02  12   7   3   2
  0.5879899267612541D-02  12   9   3   2
 -0.1654595823121471D-01  12  11   3   2
 -0.7593364176013528D-01  14   3   3   2
  0.9359764612068774D-02  14   7   3   2
  0.9164225637470706D-02  14   9   3   2
  0.5630947502630000D-01  14  11   3   2
  0.1989948472249037D-01  15   1   3   2
  0.5000601521715220D-02  15   2   3   2
  0.4602404405238054D-01  15   4   3   2
  0.7530945154498829D-02  15   5   3   2
 -0.1264508096664540D-02  15   8   3   2
 -0.3092394213184486D-01  15  10   3   2
  0.3457678931999813D-01  15  12   3   2
 -0.3642899814793511D-01  15  14   3   2
  0.1459373255256146D-02  16   3   3   2
  0.2332655659345619D-02  16   7   3   2
  0.2041522475828069D-01  16   9   3   2
 -0.7491166653950542D-02  16  11   3   2
 -0.7697373150853407D-01  16  15   3   2
 -0.3617514990907594D-01  17   3   3   2
  0.3640443641889874D-02  17   7   3   2
 -0.2676452566207224D-01  17   9   3   2
 -0.3249021929550838D-01  17  11   3   2
  0.1940857039782894D-01  17  15   3   2
  0.7718625681375427D-01  18   6   3   2
  0.2331217959903295D-01  18  13   3   2
  0.6717377555213870D-01  19  18   3   2
 -0.2380839825915722D-01  20   3   3   2
  0.6238142399436238D-02  20   7   3   2
 -0.4576869711768101D-01  20   9   3   2
 -0.2526264509682122D-01  20  11   3   2
  0.4528472534515072D-01  20  15   3   2
 -0.2338380971724346D-02  21   1   3   2
 -0.3051231365831016D-02  21   2   3   2
  0.6271573146668517D-02  21   4   3   2
 -0.1368431318548528D-03  21   5   3   2
 -0.8456848264972081D-03  21   8   3   2
  0.1970490261802211D-01  21  10   3   2
 -0.2620482806704004D-01  21  12   3   2
  0.5393998983567034D-01  21  14   3   2
 -0.7992250010399077D-02  21  16   3   2
  0.9638416726774784D-01  21  17   3   2
  0.8820184131629522D-02  21  20   3   2
  0.1555135038792114D-02  22   1   3   2
  0.2579530196824517D-01  22   2   3   2
  0.3385233361538004D-01  22   4   3   2
 -0.1408757613480252D-02  22   5   3   2
  0.1008268864228257D-01  22   8   3   2
  0.4002976963063783D-01  22  10   3   2
  0.1700084017574536D-01  22  12   3   2
  0.5050062682375431D-01  22  14   3   2
  0.3571726785475676D-01  22  16   3   2
 -0.1829459883732627D-01  22  17   3   2
 -0.4263409412528191D-01  22  20   3   2
  0.1820143729278515D-01  23   6   3   2
  0.2490739205177961D-01  23  13   3   2
 -0.6892338758861306D-01  23  19   3   2
 -0.8026909446878863D-01  24  18   3   2
  0.7856482040062329D-01  24  23   3   2
  0.1786860735385335D-01  25   3   3   2
 -0.4231810463045736D-02  25   7   3   2
  0.1840793060198195D-01  25   9   3   2
 -0.1095933740929422D-01  25  11   3   2
 -0.2322213522538253D-01  25  15   3   2
  0.9377526899435587D-01  25  21   3   2
 -0.1111663379762860D-01  25  22   3   2
  0.2633400682011264D-01  26   3   3   2
 -0.3114705310286276D-02  26   7   3   2
 -0.5118504742203927D-03  26   9   3   2
 -0.4221089996704996D-01  26  11   3   2
  0.2701811569220478D-01  26  15   3   2
 -0.3407121473795856D-02  26  21   3   2
  0.7687264774121005D-01  26  22   3   2
  0.2048359494287728D-01  27   1   3   2
  0.1768578839566614D-01  27   2   3   2
 -0.6146601295513839D-03  27   4   3   2
 -0.1861380434056728D-02  27   5   3   2
  0.1654099091107811D-02  27   8   3   2
 -0.2435148196676673D-02  27  10   3   2
  0.1942133274366083D-01  27  12   3   2
 -0.3512603308206855D-01  27  14   3   2
 -0.2281206559632318D-01  27  16   3   2
  0.5891897585951229D-02  27  17   3   2
 -0.3972908516223538D-01  27  20   3   2
 -0.3617987863111231D-02  27  25   3   2
  0.1012742217268334D+00  27  26   3   2
  0.5253731231174452D+00   3   3   3   3
 -0.6829779849178805D-02   4   1   3   3
  0.2731675487135724D-01   4   2   3   3
  0.4405099397350528D+00   4   4   3   3
 -0.5127958508059438D-03   5   1   3   3
 -0.1726088561898835D-01   5   2   3   3
  0.1546756836367627D-01   5   4   3   3
  0.1324898036616306D+00   5   5   3   3
  0.4213360404920913D+00   6   6   3   3
 -0.3397517056915807D-01   7   3   3   3
  0.1538893521476400D+00   7   7   3   3
 -0.3719043138735000D-03   8   1   3   3
  0.3409304246786175D-01   8   2   3   3
  0.1305744138528348D-01   8   4   3   3
 -0.3762836953250995D-01   8   5   3   3
  0.1713965194310718D+00   8   8   3   3
  0.4658879828888711D-01   9   3   3   3
 -0.3389065808142874D-01   9   7   3   3
  0.3332713871281176D+00   9   9   3   3
 -0.7858229789623034D-03  10   1   3   3
  0.4799435499739779D-01  10   2   3   3
  0.1397415692292547D-01  10   4   3   3
 -0.2431693594554169D-01  10   5   3   3
  0.5851697759469715D-01  10   8   3   3
  0.3128998405941792D+00  10  10   3   3
 -0.8408679003307357D-01  11   3   3   3
  0.3923448225387671D-01  11   7   3   3
  0.2035185098520589D-01  11   9   3   3
  0.3786601177647684D+00  11  11   3   3
 -0.6641190508871997D-02  12   1   3   3
  0.2289933118626526D-01  12   2   3   3
  0.8576826178662833D-01  12   4   3   3
  0.1239953895226706D-01  12   5   3   3
  0.2778195377666950D-01  12   8   3   3
  0.7046284322205255D-02  12  10   3   3
  0.3799891397879771D+00  12  12   3   3
  0.1063231865439956D+00  13   6   3   3
  0.4333912018402136D+00  13  13   3   3
 -0.3516503253906953D-02  14   1   3   3
 -0.3738309983995626D-01  14   2   3   3
  0.2964326784479143D-01  14   4   3   3
  0.8704610868705977D-02  14   5   3   3
 -0.1077848373380316D-01  14   8   3   3
  0.8268110090813152D-01  14  10   3   3
 -0.1392567925933289D-01  14  12   3   3
  0.4464087559196510D+00  14  14   3   3
 -0.2415064562703816D-01  15   3   3   3
  0.8258349634457348D-02  15   7   3   3
 -0.1144107977358050D+00  15   9   3   3
 -0.1054024927400134D-01  15  11   3   3
  0.4493020004716772D+00  15  15   3   3
  0.1048910429679596D-02  16   1   3   3
  0.5331209580194814D-01  16   2   3   3
 -0.2760616683282231D-01  16   4   3   3
 -0.1941216060789893D-01  16   5   3   3
  0.2680145667908527D-01  16   8   3   3
  0.8060077538336856D-01  16  10   3   3
  0.1137787750014157D-01  16  12   3   3
  0.1784433870013905D-01  16  14   3   3
  0.4153509315592989D+00  16  16   3   3
  0.2276078872884770D-02  17   1   3   3
 -0.1718131002662000D-02  17   2   3   3
  0.2823050650547782D-01  17   4   3   3
 -0.7281749851305308D-04  17   5   3   3
  0.3905177593281267D-02  17   8   3   3
  0.6906874229882939D-02  17  10   3   3
 -0.2132811240788119D-01  17  12   3   3
  0.1851109087391266D-01  17  14   3   3
 -0.1357292575820868D-01  17  16   3   3
  0.4709644568166017D+00  17  17   3   3
  0.4924528367985116D+00  18  18   3   3
  0.3252144073214686D-01  19   6   3   3
 -0.5779696907797907D-02  19  13   3   3
  0.4590904521760345D+00  19  19   3   3
  0.2233180339796869D-02  20   1   3   3
 -0.1284143537285169D-01  20   2   3   3
  0.4386752960812363D-02  20   4   3   3
  0.1504103688336467D-02  20   5   3   3
 -0.1299570389349712D-02  20   8   3   3
 -0.5363716759851991D-02  20  10   3   3
 -0.1994326545399612D-01  20  12   3   3
  0.1211512953694256D-01  20  14   3   3
 -0.1973872234222306D-01  20  16   3   3
  0.1133450512582210D-01  20  17   3   3
  0.4644518053898978D+00  20  20   3   3
 -0.1628124589446112D-01  21   3   3   3
  0.4464527927731101D-03  21   7   3   3
 -0.5740108089935768D-02  21   9   3   3