----- GAMESS execution script -----
This job is running on host coupled.cem.msu.edu
under operating system Linux at Mon Jul 5 12:36:06 EDT 2021
Available scratch disk space (Kbyte units) at beginning of the job is
Filesystem      1K-blocks       Used  Available Use% Mounted on
/dev/sdb2      2620586816 1390697564 1096764376  56% /scratch

 Distributed Data Interface kickoff program.
 Initiating 1 compute processes on 1 nodes to run the following command:
 /home2/gururang/CC_PACKAGE/gamess/gamess.00.x F2+-2.0-VTZ 

          ******************************************************
          *         GAMESS VERSION = 25 MAR 2010 (R1)          *
          *             FROM IOWA STATE UNIVERSITY             *
          * M.W.SCHMIDT, K.K.BALDRIDGE, J.A.BOATZ, S.T.ELBERT, *
          *   M.S.GORDON, J.H.JENSEN, S.KOSEKI, N.MATSUNAGA,   *
          *          K.A.NGUYEN, S.J.SU, T.L.WINDUS,           *
          *       TOGETHER WITH M.DUPUIS, J.A.MONTGOMERY       *
          *         J.COMPUT.CHEM.  14, 1347-1363(1993)        *
          **************** 64 BIT LINUX VERSION ****************

  SINCE 1993, STUDENTS AND POSTDOCS WORKING AT IOWA STATE UNIVERSITY
  AND ALSO IN THEIR VARIOUS JOBS AFTER LEAVING ISU HAVE MADE IMPORTANT
  CONTRIBUTIONS TO THE CODE:
     IVANA ADAMOVIC, CHRISTINE AIKENS, YURI ALEXEEV, POOJA ARORA,
     ANDREY ASADCHEV, ROB BELL, PRADIPTA BANDYOPADHYAY, JONATHAN BENTZ,
     BRETT BODE, GALINA CHABAN, WEI CHEN, CHEOL HO CHOI, PAUL DAY, TIM DUDLEY,
     DMITRI FEDOROV, GRAHAM FLETCHER, MARK FREITAG, KURT GLAESEMANN, DAN KEMP,
     GRANT MERRILL, JONATHAN MULLIN, TAKESHI NAGATA, SEAN NEDD,
     HEATHER NETZLOFF, BOSILJKA NJEGIC, RYAN OLSON, MIKE PAK, JIM SHOEMAKER,
     LYUDMILA SLIPCHENKO, SAROM SOK, JIE SONG, TETSUYA TAKETSUGU,
     SIMON WEBB, SOOHAENG YOO, FEDERICO ZAHARIEV

  ADDITIONAL CODE HAS BEEN PROVIDED BY COLLABORATORS IN OTHER GROUPS:
     IOWA STATE UNIVERSITY: JOE IVANIC, LAIMUTIS BYTAUTAS,
          KLAUS RUEDENBERG
     UNIVERSITY OF TOKYO: KIMIHIKO HIRAO, TAKAHITO NAKAJIMA,
          TAKAO TSUNEDA, MUNEAKI KAMIYA, SUSUMU YANAGISAWA,
          KIYOSHI YAGI, MAHITO CHIBA, SEIKEN TOKURA, NAOAKI KAWAKAMI
     UNIVERSITY OF AARHUS: FRANK JENSEN
     UNIVERSITY OF IOWA: VISVALDAS KAIRYS, HUI LI
     NATIONAL INST. OF STANDARDS AND TECHNOLOGY: WALT STEVENS, DAVID GARMER
     UNIVERSITY OF PISA: BENEDETTA MENNUCCI, JACOPO TOMASI
     UNIVERSITY OF MEMPHIS: HENRY KURTZ, PRAKASHAN KORAMBATH
     UNIVERSITY OF ALBERTA: MARIUSZ KLOBUKOWSKI
     UNIVERSITY OF NEW ENGLAND: MARK SPACKMAN
     MIE UNIVERSITY: HIROAKI UMEDA
     MICHIGAN STATE UNIVERSITY:
          KAROL KOWALSKI, MARTA WLOCH, JEFFREY GOUR, JESSE LUTZ, PIOTR PIECUCH
     UNIVERSITY OF SILESIA: MONIKA MUSIAL, STANISLAW KUCHARSKI
     FACULTES UNIVERSITAIRES NOTRE-DAME DE LA PAIX:
          OLIVIER QUINET, BENOIT CHAMPAGNE
     UNIVERSITY OF CALIFORNIA - SANTA BARBARA: BERNARD KIRTMAN
     INSTITUTE FOR MOLECULAR SCIENCE: KAZUYA ISHIMURA AND SHIGERU NAGASE
     UNIVERSITY OF NOTRE DAME: DAN CHIPMAN
     KYUSHU UNIVERSITY:
          HARUYUKI NAKANO,
          FENG LONG GU, JACEK KORCHOWIEC, MARCIN MAKOWSKI, AND YURIKO AOKI,
          HIROTOSHI MORI AND EISAKU MIYOSHI
     PENNSYLVANIA STATE UNIVERSITY:
          TZVETELIN IORDANOV, CHET SWALINA, JONATHAN SKONE,
          SHARON HAMMES-SCHIFFER
     WASEDA UNIVERSITY:
          MASATO KOBAYASHI, TOMOKO AKAMA, HIROMI NAKAI
     UNIVERSITY OF NEBRASKA:
          PEIFENG SU, DEJUN SI, YALI WANG, HUI LI

 EXECUTION OF GAMESS BEGUN Mon Jul  5 12:36:07 2021

            ECHO OF THE FIRST FEW INPUT CARDS -
 INPUT CARD> $contrl runtyp=energy scftyp=rohf cctyp=CCSD maxit=200 $end                    
 INPUT CARD> $contrl  icharg=1 mult=2 ispher=+1 $end                                        
 INPUT CARD> $scf RSTRCT=.true. $end                                                        
 INPUT CARD> $system mwords=100 $end                                                        
 INPUT CARD> $ccinp nfzv=0 ncore=0 iconv=10 maxcc=100 $end                                  
 INPUT CARD> $guess guess=moread norb=60 $end                                               
 INPUT CARD> $data                                                                          
 INPUT CARD>From gaussian file to gamess file                                               
 INPUT CARD>Dnh 2                                                                           
 INPUT CARD>                                                                                
 INPUT CARD> F   9.0      0.00000000      0.00000000      1.32200000                        
 INPUT CARD> S    7                                                                         
 INPUT CARD> 1  0.1950000000E+05  0.5190024441E-03                                          
 INPUT CARD> 2  0.2923000000E+04  0.4015781354E-02                                          
 INPUT CARD> 3  0.6645000000E+03  0.2067746110E-01                                          
 INPUT CARD> 4  0.1875000000E+03  0.8086901703E-01                                          
 INPUT CARD> 5  0.6062000000E+02  0.2358075463E+00                                          
 INPUT CARD> 6  0.2142000000E+02  0.4425823060E+00                                          
 INPUT CARD> 7  0.7950000000E+01  0.3569628672E+00                                          
 INPUT CARD> S    7                                                                         
 INPUT CARD> 1  0.1950000000E+05  0.9720399405E-05                                          
 INPUT CARD> 2  0.2923000000E+04  0.6332758211E-04                                          
 INPUT CARD> 3  0.6645000000E+03  0.2887812714E-03                                          
 INPUT CARD> 4  0.6062000000E+02 -0.7084819492E-02                                          
 INPUT CARD> 5  0.2142000000E+02 -0.6294853050E-01                                          
 INPUT CARD> 6  0.7950000000E+01 -0.1638259029E+00                                          
 INPUT CARD> 7  0.8815000000E+00  0.1071183841E+01                                          
 INPUT CARD> S    1                                                                         
 INPUT CARD> 1  0.2257000000E+01  0.1000000000E+01                                          
 INPUT CARD> S    1                                                                         
 INPUT CARD> 1  0.3041000000E+00  0.1000000000E+01                                          
 INPUT CARD> P    3                                                                         
 INPUT CARD> 1  0.4388000000E+02  0.4190462069E-01                                          
 INPUT CARD> 2  0.9926000000E+01  0.2626978417E+00                                          
 INPUT CARD> 3  0.2930000000E+01  0.7977593735E+00                                          
 INPUT CARD> P    1                                                                         
 INPUT CARD> 1  0.9132000000E+00  0.1000000000E+01                                          
 INPUT CARD> P    1                                                                         
 INPUT CARD> 1  0.2672000000E+00  0.1000000000E+01                                          
 INPUT CARD> D    1                                                                         
 INPUT CARD> 1  0.3107000000E+01  0.1000000000E+01                                          
 INPUT CARD> D    1                                                                         
 INPUT CARD> 1  0.8550000000E+00  0.1000000000E+01                                          
 INPUT CARD> F    1                                                                         
 INPUT CARD> 1  0.1917000000E+01  0.1000000000E+01                                          
 INPUT CARD>                                                                                
 INPUT CARD> $end                                                                           
 INPUT CARD> ---from G03---                                                                 
 INPUT CARD> $VEC                                                                           
 INPUT CARD> 1  1 6.91271943E-01-5.52836483E-03 2.99947725E-02 1.34847811E-03 0.00000000E+00
  100000000 WORDS OF MEMORY AVAILABLE


     RUN TITLE
     ---------
 From gaussian file to gamess file                                               

 THE POINT GROUP OF THE MOLECULE IS DNH     
 THE ORDER OF THE PRINCIPAL AXIS IS     2

 ATOM      ATOMIC                      COORDINATES (BOHR)
           CHARGE         X                   Y                   Z
 F           9.0     0.0000000000        0.0000000000       -2.4982177558
 F           9.0     0.0000000000        0.0000000000        2.4982177558

          INTERNUCLEAR DISTANCES (ANGS.)
          ------------------------------

                1 F          2 F     

   1 F       0.0000000    2.6440000 *
   2 F       2.6440000 *  0.0000000  

  * ... LESS THAN  3.000


     ATOMIC BASIS SET
     ----------------
 THE CONTRACTED PRIMITIVE FUNCTIONS HAVE BEEN UNNORMALIZED
 THE CONTRACTED BASIS FUNCTIONS ARE NOW NORMALIZED TO UNITY

  SHELL TYPE  PRIMITIVE        EXPONENT          CONTRACTION COEFFICIENT(S)

 F         

     11   S       1         19500.0000000    0.000519002444
     11   S       2          2923.0000000    0.004015781354
     11   S       3           664.5000000    0.020677461101
     11   S       4           187.5000000    0.080869017034
     11   S       5            60.6200000    0.235807546312
     11   S       6            21.4200000    0.442582306023
     11   S       7             7.9500000    0.356962867219

     12   S       8         19500.0000000    0.000009720399
     12   S       9          2923.0000000    0.000063327582
     12   S      10           664.5000000    0.000288781271
     12   S      11            60.6200000   -0.007084819489
     12   S      12            21.4200000   -0.062948530473
     12   S      13             7.9500000   -0.163825902831
     12   S      14             0.8815000    1.071183840549

     13   S      15             2.2570000    1.000000000000

     14   S      16             0.3041000    1.000000000000

     15   P      17            43.8800000    0.041904620690
     15   P      18             9.9260000    0.262697841698
     15   P      19             2.9300000    0.797759373495

     16   P      20             0.9132000    1.000000000000

     17   P      21             0.2672000    1.000000000000

     18   D      22             3.1070000    1.000000000000

     19   D      23             0.8550000    1.000000000000

     20   F      24             1.9170000    1.000000000000

 TOTAL NUMBER OF BASIS SET SHELLS             =   20
 NUMBER OF CARTESIAN GAUSSIAN BASIS FUNCTIONS =   70
 NOTE: THIS RUN WILL RESTRICT THE MO VARIATION SPACE TO SPHERICAL HARMONICS.
 THE NUMBER OF ORBITALS KEPT IN THE VARIATIONAL SPACE WILL BE PRINTED LATER.
 NUMBER OF ELECTRONS                          =   17
 CHARGE OF MOLECULE                           =    1
 SPIN MULTIPLICITY                            =    2
 NUMBER OF OCCUPIED ORBITALS (ALPHA)          =    9
 NUMBER OF OCCUPIED ORBITALS (BETA )          =    8
 TOTAL NUMBER OF ATOMS                        =    2
 THE NUCLEAR REPULSION ENERGY IS       16.2115571817

 THIS MOLECULE IS RECOGNIZED AS BEING LINEAR,
 ORBITAL LZ DEGENERACY TOLERANCE ETOLLZ= 1.00E-06

     $CONTRL OPTIONS
     ---------------
 SCFTYP=ROHF         RUNTYP=ENERGY       EXETYP=RUN     
 MPLEVL=       0     CITYP =NONE         CCTYP =CCSD         VBTYP =NONE    
 DFTTYP=NONE         TDDFT =NONE    
 MULT  =       2     ICHARG=       1     NZVAR =       0     COORD =UNIQUE  
 PP    =NONE         RELWFN=NONE         LOCAL =NONE         NUMGRD=       F
 ISPHER=       1     NOSYM =       0     MAXIT =     200     UNITS =ANGS    
 PLTORB=       F     MOLPLT=       F     AIMPAC=       F     FRIEND=        
 NPRINT=       7     IREST =       0     GEOM  =INPUT   
 NORMF =       0     NORMP =       0     ITOL  =      20     ICUT  =       9
 INTTYP=BEST         GRDTYP=BEST         QMTTOL= 1.0E-06

     $SYSTEM OPTIONS
     ---------------
  REPLICATED MEMORY=   100000000 WORDS (ON EVERY NODE).
 DISTRIBUTED MEMDDI=           0 MILLION WORDS IN AGGREGATE,
 MEMDDI DISTRIBUTED OVER   1 PROCESSORS IS           0 WORDS/PROCESSOR.
 TOTAL MEMORY REQUESTED ON EACH PROCESSOR=   100000000 WORDS.
 TIMLIM=      525600.00 MINUTES, OR     365.0 DAYS.
 PARALL= F  BALTYP=  DLB     KDIAG=    0  COREFL= F

          ----------------
          PROPERTIES INPUT
          ----------------

     MOMENTS            FIELD           POTENTIAL          DENSITY
 IEMOM =       1   IEFLD =       0   IEPOT =       0   IEDEN =       0
 WHERE =COMASS     WHERE =NUCLEI     WHERE =NUCLEI     WHERE =NUCLEI  
 OUTPUT=BOTH       OUTPUT=BOTH       OUTPUT=PUNCH      OUTPUT=BOTH    
 IEMINT=       0   IEFINT=       0                     IEDINT=       0
                                                       MORB  =       0
          EXTRAPOLATION IN EFFECT
          RESTRICTION OF ORBITAL MIXING IN EFFECT
          SOSCF IN EFFECT
 ORBITAL PRINTING OPTION: NPREO=     1    70     2     1

     -------------------------------
     INTEGRAL TRANSFORMATION OPTIONS
     -------------------------------
     NWORD  =         0     CUTOFF = 1.0E-09
     MPTRAN =         0     DIRTRF =       F
     AOINTS =DUP     

          ----------------------
          INTEGRAL INPUT OPTIONS
          ----------------------
 NOPK  =       1 NORDER=       0 SCHWRZ=       F

     ------------------------------------------
     THE POINT GROUP IS DNH, NAXIS= 2, ORDER= 8
     ------------------------------------------

 -- VARIATIONAL SPACE WILL BE RESTRICTED TO PURE SPHERICAL HARMONICS ONLY --
 AFTER EXCLUDING CONTAMINANT COMBINATIONS FROM THE CARTESIAN GAUSSIAN BASIS
 SET, THE NUMBER OF SPHERICAL HARMONICS KEPT IN THE VARIATION SPACE IS   60

     DIMENSIONS OF THE SYMMETRY SUBSPACES ARE
 AG  =   13     AU  =    3     B3U =    7     B3G =    7     B1G =    3
 B1U =   13     B2U =    7     B2G =    7

 ..... DONE SETTING UP THE RUN .....
 STEP CPU TIME =     0.02 TOTAL CPU TIME =        0.0 (    0.0 MIN)
 TOTAL WALL CLOCK TIME=        0.0 SECONDS, CPU UTILIZATION IS  66.67%

          ********************
          1 ELECTRON INTEGRALS
          ********************
 ...... END OF ONE-ELECTRON INTEGRALS ......
 STEP CPU TIME =     0.01 TOTAL CPU TIME =        0.0 (    0.0 MIN)
 TOTAL WALL CLOCK TIME=        0.0 SECONDS, CPU UTILIZATION IS 100.00%

          -------------
          GUESS OPTIONS
          -------------
          GUESS =MOREAD            NORB  =      60          NORDER=       0
          MIX   =       F          PRTMO =       F          PUNMO =       F
          TOLZ  = 1.0E-08          TOLE  = 1.0E-05
          SYMDEN=       F          PURIFY=       F

 INITIAL GUESS ORBITALS GENERATED BY MOREAD   ROUTINE.

 STATISTICS FOR GENERATION OF SYMMETRY ORBITAL -Q- MATRIX
 NUMBER OF CARTESIAN ATOMIC ORBITALS=         70
 NUMBER OF SPHERICAL CONTAMINANTS DROPPED=    10
 NUMBER OF LINEARLY DEPENDENT MOS DROPPED=     0
 TOTAL NUMBER OF MOS IN VARIATION SPACE=      60

 SYMMETRIES FOR INITIAL GUESS ORBITALS FOLLOW.  ALPHA SET(S).
     9 ORBITALS ARE OCCUPIED (    2 CORE ORBITALS).
     3=AG       4=B1U      5=B3U      6=AG       7=B2G      8=B2U      9=B3G 
    10=B1U     11=B2U     12=B1U     13=B3U     14=B3G     15=AG      16=B2G 
    17=AG      18=B1U     19=B2U 

 SYMMETRIES FOR INITIAL GUESS ORBITALS FOLLOW.   BETA SET(S).
     8 ORBITALS ARE OCCUPIED (    2 CORE ORBITALS).
     3=AG       4=B1U      5=B3U      6=AG       7=B2G      8=B2U      9=B3G 
    10=B1U     11=B2U     12=B1U     13=B3U     14=B3G     15=AG      16=B2G 
    17=AG      18=B1U 
 ...... END OF INITIAL ORBITAL SELECTION ......
 STEP CPU TIME =     0.01 TOTAL CPU TIME =        0.0 (    0.0 MIN)
 TOTAL WALL CLOCK TIME=        0.0 SECONDS, CPU UTILIZATION IS 100.00%

                    ----------------------
                    AO INTEGRAL TECHNOLOGY
                    ----------------------
     S,P,L SHELL ROTATED AXIS INTEGRALS, REPROGRAMMED BY
        KAZUYA ISHIMURA (IMS) AND JOSE SIERRA (SYNSTAR).
     S,P,D,L SHELL ROTATED AXIS INTEGRALS PROGRAMMED BY
        KAZUYA ISHIMURA (INSTITUTE FOR MOLECULAR SCIENCE).
     S,P,D,F,G SHELL TO TOTAL QUARTET ANGULAR MOMENTUM SUM 5,
        ERIC PROGRAM BY GRAHAM FLETCHER (ELORET AND NASA ADVANCED
        SUPERCOMPUTING DIVISION, AMES RESEARCH CENTER).
     S,P,D,F,G,L SHELL GENERAL RYS QUADRATURE PROGRAMMED BY
        MICHEL DUPUIS (PACIFIC NORTHWEST NATIONAL LABORATORY).

          --------------------
          2 ELECTRON INTEGRALS
          --------------------

 THE -PK- OPTION IS OFF, THE INTEGRALS ARE NOT IN SUPERMATRIX FORM.
 STORING   15000 INTEGRALS/RECORD ON DISK, USING 12 BYTES/INTEGRAL.
 TWO ELECTRON INTEGRAL EVALUATION REQUIRES   99310 WORDS OF MEMORY.
 II,JST,KST,LST =  1  1  1  1 NREC =         1 INTLOC =    1
 II,JST,KST,LST =  2  1  1  1 NREC =         1 INTLOC =    1
 II,JST,KST,LST =  3  1  1  1 NREC =         1 INTLOC =    1
 II,JST,KST,LST =  4  1  1  1 NREC =         1 INTLOC =    1
 II,JST,KST,LST =  5  1  1  1 NREC =         1 INTLOC =    1
 II,JST,KST,LST =  6  1  1  1 NREC =         1 INTLOC =    1
 II,JST,KST,LST =  7  1  1  1 NREC =         1 INTLOC =    1
 II,JST,KST,LST =  8  1  1  1 NREC =         1 INTLOC =    1
 II,JST,KST,LST =  9  1  1  1 NREC =         1 INTLOC =    1
 II,JST,KST,LST = 10  1  1  1 NREC =         1 INTLOC =    1
 II,JST,KST,LST = 11  1  1  1 NREC =         1 INTLOC =    1
 II,JST,KST,LST = 12  1  1  1 NREC =         1 INTLOC =    3
 II,JST,KST,LST = 13  1  1  1 NREC =         1 INTLOC =   18
 II,JST,KST,LST = 14  1  1  1 NREC =         1 INTLOC =   66
 II,JST,KST,LST = 15  1  1  1 NREC =         1 INTLOC =  237
 II,JST,KST,LST = 16  1  1  1 NREC =         1 INTLOC =  622
 II,JST,KST,LST = 17  1  1  1 NREC =         1 INTLOC = 2098
 II,JST,KST,LST = 18  1  1  1 NREC =         1 INTLOC = 6454
 II,JST,KST,LST = 19  1  1  1 NREC =         2 INTLOC = 6171
 II,JST,KST,LST = 20  1  1  1 NREC =         5 INTLOC = 7526
 TOTAL NUMBER OF NONZERO TWO-ELECTRON INTEGRALS =              210914
         15 INTEGRAL RECORDS WERE STORED ON DISK FILE  8.
  ...... END OF TWO-ELECTRON INTEGRALS .....
 STEP CPU TIME =     0.13 TOTAL CPU TIME =        0.2 (    0.0 MIN)
 TOTAL WALL CLOCK TIME=        0.2 SECONDS, CPU UTILIZATION IS 100.00%

          ---------------------------
                 ROHF SCF CALCULATION
          ---------------------------

     NUCLEAR ENERGY =        16.2115571817
     MAXIT =200     NPUNCH=  2     MULT=  2
     EXTRAP=T  DAMP=F  SHIFT=F  RSTRCT=T  DIIS=F  SOSCF=T
     DENSITY MATRIX CONV=  1.00E-06
     ROHF CANONICALIZATION PARAMETERS
             C-C     O-O     V-V
     ALPHA -0.5000  0.5000  1.5000
     BETA   1.5000  0.5000 -0.5000
     SOSCF WILL OPTIMIZE     467 ORBITAL ROTATION ANGLES. SOGTOL= 2.500E-01
     MEMORY REQUIRED FOR UHF/ROHF ITERS=     77893 WORDS.

 ITER EX      TOTAL ENERGY        E CHANGE  DENSITY CHANGE    ORB. GRAD 
   1  0     -197.8137779997  -197.8137779997   0.004572649   0.000000000
          ---------------START SECOND ORDER SCF---------------
   2  1     -197.8141361936    -0.0003581938   0.002099799   0.002939406
   3  2     -197.8141694317    -0.0000332381   0.000635299   0.001515773
   4  3     -197.8141780511    -0.0000086194   0.000091914   0.000121070
   5  4     -197.8141781822    -0.0000001311   0.000020422   0.000030643
   6  5     -197.8141781859    -0.0000000037   0.000002034   0.000004156
   7  6     -197.8141781860    -0.0000000001   0.000000340   0.000000594
   8  7     -197.8141781860    -0.0000000000   0.000000051   0.000000067

 ROHF HAS CONVERGED, NOW COMPUTING EXACT ALPHA,BETA FOCK MATRICES
 FOR USE DURING THE COUPLED CLUSTER CALCULATION THAT FOLLOWS.

          -----------------
          DENSITY CONVERGED
          -----------------

 FINAL ROHF ENERGY IS     -197.8141781860 AFTER   8 ITERATIONS

          --------------------
          SPIN SZ   =    0.500
          S-SQUARED =    0.750
          --------------------

 LZ VALUE ANALYSIS FOR THE MOS
 ----------------------------------------
 MO     1 (    1) HAS LZ(WEIGHT)= 0.00(100.0%) 
 MO     2 (    2) HAS LZ(WEIGHT)= 0.00(100.0%) 
 MO     3 (    3) HAS LZ(WEIGHT)= 0.00(100.0%) 
 MO     4 (    4) HAS LZ(WEIGHT)= 0.00(100.0%) 
 MO     5 (    5) HAS LZ(WEIGHT)= 0.00(100.0%) 
 MO     6 (    6) HAS LZ(WEIGHT)= 0.00(100.0%) 
 MO     7 (    7) HAS LZ(WEIGHT)= 0.00(100.0%) 
 MO     8 (    8) HAS LZ(WEIGHT)= 0.00(100.0%) 
 MO     9 (    9) HAS LZ(WEIGHT)= 0.00(100.0%) 
 MO    10 (   10) HAS LZ(WEIGHT)= 0.00(100.0%) 
 MO    11 (   11) HAS LZ(WEIGHT)= 0.00(100.0%) 
 MO    12 (   12) HAS LZ(WEIGHT)= 0.00(100.0%) 
 MO    13 (   13) HAS LZ(WEIGHT)= 0.00(100.0%) 
 MO    14 (   14) HAS LZ(WEIGHT)= 0.00(100.0%) 
 MO    15 (   15) HAS LZ(WEIGHT)= 0.00(100.0%) 
 MO    16 (   16) HAS LZ(WEIGHT)= 0.00(100.0%) 
 MO    17 (   17) HAS LZ(WEIGHT)= 0.00(100.0%) 
 MO    18 (   18) HAS LZ(WEIGHT)= 0.00(100.0%) 
 MO    19 (   19) HAS LZ(WEIGHT)= 0.00(100.0%) 
 MO    20 (   20) HAS LZ(WEIGHT)= 0.00(100.0%) 
 MO    21 (   21) HAS LZ(WEIGHT)= 0.00(100.0%) 
 MO    22 (   22) HAS LZ(WEIGHT)= 0.00(100.0%) 
 MO    23 (   23) HAS LZ(WEIGHT)= 0.00(100.0%) 
 MO    24 (   24) HAS LZ(WEIGHT)= 0.00(100.0%) 
 MO    25 (   25) HAS LZ(WEIGHT)= 0.00(100.0%) 
 MO    26 (   26) HAS LZ(WEIGHT)= 0.00(100.0%) 
 MO    27 (   27) HAS LZ(WEIGHT)= 0.00(100.0%) 
 MO    28 (   28) HAS LZ(WEIGHT)= 0.00(100.0%) 
 MO    29 (   29) HAS LZ(WEIGHT)= 0.00(100.0%) 
 MO    30 (   30) HAS LZ(WEIGHT)= 0.00(100.0%) 
 MO    31 (   31) HAS LZ(WEIGHT)= 0.00(100.0%) 
 MO    32 (   32) HAS LZ(WEIGHT)= 0.00(100.0%) 
 MO    33 (   33) HAS LZ(WEIGHT)= 0.00(100.0%) 
 MO    34 (   34) HAS LZ(WEIGHT)= 0.00(100.0%) 
 MO    35 (   35) HAS LZ(WEIGHT)= 0.00(100.0%) 
 MO    36 (   36) HAS LZ(WEIGHT)= 0.00(100.0%) 
 MO    37 (   37) HAS LZ(WEIGHT)= 0.00(100.0%) 
 MO    38 (   38) HAS LZ(WEIGHT)= 0.00(100.0%) 
 MO    39 (   39) HAS LZ(WEIGHT)= 0.00(100.0%) 
 MO    40 (   40) HAS LZ(WEIGHT)= 0.00(100.0%) 
 MO    41 (   41) HAS LZ(WEIGHT)= 0.00(100.0%) 
 MO    42 (   42) HAS LZ(WEIGHT)= 0.00(100.0%) 
 MO    43 (   43) HAS LZ(WEIGHT)= 0.00(100.0%) 
 MO    44 (   44) HAS LZ(WEIGHT)= 0.00(100.0%) 
 MO    45 (   45) HAS LZ(WEIGHT)= 0.00(100.0%) 
 MO    46 (   46) HAS LZ(WEIGHT)= 0.00(100.0%) 
 MO    47 (   47) HAS LZ(WEIGHT)= 0.00(100.0%) 
 MO    48 (   48) HAS LZ(WEIGHT)= 0.00(100.0%) 
 MO    49 (   49) HAS LZ(WEIGHT)= 0.00(100.0%) 
 MO    50 (   50) HAS LZ(WEIGHT)= 0.00(100.0%) 
 MO    51 (   51) HAS LZ(WEIGHT)= 0.00(100.0%) 
 MO    52 (   52) HAS LZ(WEIGHT)= 0.00(100.0%) 
 MO    53 (   53) HAS LZ(WEIGHT)= 0.00(100.0%) 
 MO    54 (   54) HAS LZ(WEIGHT)= 0.00(100.0%) 
 MO    55 (   55) HAS LZ(WEIGHT)= 0.00(100.0%) 
 MO    56 (   56) HAS LZ(WEIGHT)= 0.00(100.0%) 
 MO    57 (   57) HAS LZ(WEIGHT)= 0.00(100.0%) 
 MO    58 (   58) HAS LZ(WEIGHT)= 0.00(100.0%) 
 MO    59 (   59) HAS LZ(WEIGHT)= 0.00(100.0%) 
 MO    60 (   60) HAS LZ(WEIGHT)= 0.00(100.0%) 

          ------------
          EIGENVECTORS
          ------------

                      1          2          3          4          5
                  -26.9159   -26.9158    -1.9302    -1.9149    -1.1463
                     AG         B1U        AG         B1U        B3U 
    1  F  1  S    0.691260   0.691233  -0.168786  -0.169573   0.000000
    2  F  1  S   -0.005538  -0.005696   0.418230   0.422176   0.000000
    3  F  1  S    0.030014   0.030066   0.130276   0.131420   0.000000
    4  F  1  S    0.001369   0.001499   0.231797   0.229846   0.000000
    5  F  1  X   -0.000000  -0.000000  -0.000000   0.000000   0.298105
    6  F  1  Y   -0.000000  -0.000000  -0.000000   0.000000   0.000000
    7  F  1  Z    0.000157   0.000168   0.003762  -0.003829   0.000000
    8  F  1  X   -0.000000  -0.000000  -0.000000   0.000000   0.361651
    9  F  1  Y   -0.000000  -0.000000  -0.000000   0.000000   0.000000
   10  F  1  Z   -0.000013  -0.000168   0.005629  -0.004677   0.000000
   11  F  1  X   -0.000000  -0.000000  -0.000000   0.000000   0.193606
   12  F  1  Y   -0.000000  -0.000000  -0.000000   0.000000   0.000000
   13  F  1  Z   -0.000013   0.000158   0.007066  -0.000319   0.000000
   14  F  1 XX    0.000134   0.000141   0.000399   0.000417   0.000000
   15  F  1 YY    0.000004   0.000011   0.000049   0.000059   0.000000
   16  F  1 ZZ   -0.000138  -0.000153  -0.000448  -0.000476   0.000000
   17  F  1 XY   -0.000000  -0.000000  -0.000000   0.000000   0.000000
   18  F  1 XZ   -0.000000  -0.000000  -0.000000   0.000000   0.000203
   19  F  1 YZ   -0.000000  -0.000000  -0.000000   0.000000   0.000000
   20  F  1 XX    0.000101   0.000090   0.000177   0.001159   0.000000
   21  F  1 YY    0.000007  -0.000009  -0.000603   0.000002   0.000000
   22  F  1 ZZ   -0.000108  -0.000081   0.000425  -0.001160   0.000000
   23  F  1 XY   -0.000000  -0.000000  -0.000000   0.000000   0.000000
   24  F  1 XZ   -0.000000  -0.000000  -0.000000   0.000000   0.002215
   25  F  1 YZ   -0.000000  -0.000000  -0.000000   0.000000   0.000000
   26  F  1 XXX  -0.000000  -0.000000  -0.000000   0.000000  -0.002239
   27  F  1 YYY  -0.000000  -0.000000  -0.000000   0.000000   0.000000
   28  F  1 ZZZ   0.000001   0.000003   0.000162  -0.000044   0.000000
   29  F  1 XXY  -0.000000  -0.000000  -0.000000   0.000000   0.000000
   30  F  1 XXZ  -0.000001  -0.000002  -0.000133   0.000044   0.000000
   31  F  1 YYX  -0.000000  -0.000000  -0.000000   0.000000   0.000562
   32  F  1 YYZ  -0.000001  -0.000002  -0.000084   0.000015   0.000000
   33  F  1 ZZX  -0.000000  -0.000000  -0.000000   0.000000   0.002442
   34  F  1 ZZY  -0.000000  -0.000000  -0.000000   0.000000   0.000000
   35  F  1 XYZ  -0.000000  -0.000000  -0.000000   0.000000   0.000000
   36  F  2  S    0.691260  -0.691233  -0.168786   0.169573   0.000000
   37  F  2  S   -0.005538   0.005696   0.418230  -0.422176   0.000000
   38  F  2  S    0.030014  -0.030066   0.130276  -0.131420   0.000000
   39  F  2  S    0.001369  -0.001499   0.231797  -0.229846   0.000000
   40  F  2  X   -0.000000  -0.000000  -0.000000   0.000000   0.298105
   41  F  2  Y   -0.000000  -0.000000  -0.000000   0.000000   0.000000
   42  F  2  Z   -0.000157   0.000168  -0.003762  -0.003829   0.000000
   43  F  2  X   -0.000000  -0.000000  -0.000000   0.000000   0.361651
   44  F  2  Y   -0.000000  -0.000000  -0.000000   0.000000   0.000000
   45  F  2  Z    0.000013  -0.000168  -0.005629  -0.004677   0.000000
   46  F  2  X   -0.000000  -0.000000  -0.000000   0.000000   0.193606
   47  F  2  Y   -0.000000  -0.000000  -0.000000   0.000000   0.000000
   48  F  2  Z    0.000013   0.000158  -0.007066  -0.000319   0.000000
   49  F  2 XX    0.000134  -0.000141   0.000399  -0.000417   0.000000
   50  F  2 YY    0.000004  -0.000011   0.000049  -0.000059   0.000000
   51  F  2 ZZ   -0.000138   0.000153  -0.000448   0.000476   0.000000
   52  F  2 XY   -0.000000  -0.000000  -0.000000   0.000000   0.000000
   53  F  2 XZ   -0.000000  -0.000000  -0.000000   0.000000  -0.000203
   54  F  2 YZ   -0.000000  -0.000000  -0.000000   0.000000   0.000000
   55  F  2 XX    0.000101  -0.000090   0.000177  -0.001159   0.000000
   56  F  2 YY    0.000007   0.000009  -0.000603  -0.000002   0.000000
   57  F  2 ZZ   -0.000108   0.000081   0.000425   0.001160   0.000000
   58  F  2 XY   -0.000000  -0.000000  -0.000000   0.000000   0.000000
   59  F  2 XZ   -0.000000  -0.000000  -0.000000   0.000000  -0.002215
   60  F  2 YZ   -0.000000  -0.000000  -0.000000   0.000000   0.000000
   61  F  2 XXX  -0.000000  -0.000000  -0.000000   0.000000  -0.002239
   62  F  2 YYY  -0.000000  -0.000000  -0.000000   0.000000   0.000000
   63  F  2 ZZZ  -0.000001   0.000003  -0.000162  -0.000044   0.000000
   64  F  2 XXY  -0.000000  -0.000000  -0.000000   0.000000   0.000000
   65  F  2 XXZ   0.000001  -0.000002   0.000133   0.000044   0.000000
   66  F  2 YYX  -0.000000  -0.000000  -0.000000   0.000000   0.000562
   67  F  2 YYZ   0.000001  -0.000002   0.000084   0.000015   0.000000
   68  F  2 ZZX  -0.000000  -0.000000  -0.000000   0.000000   0.002442
   69  F  2 ZZY  -0.000000  -0.000000  -0.000000   0.000000   0.000000
   70  F  2 XYZ  -0.000000  -0.000000  -0.000000   0.000000   0.000000

                      6          7          8          9         10
                   -0.8947    -1.1417    -0.6490    -0.9268    -0.6910
                     AG         B2G        B2U        B3G        B1U 
    1  F  1  S    0.006248   0.000000   0.000000  -0.000000  -0.003981
    2  F  1  S   -0.033868   0.000000   0.000000  -0.000000   0.011762
    3  F  1  S   -0.008143   0.000000   0.000000  -0.000000   0.003307
    4  F  1  S    0.016273   0.000000   0.000000  -0.000000   0.004500
    5  F  1  X   -0.000000   0.299548   0.000000  -0.000000  -0.000000
    6  F  1  Y   -0.000000   0.000000   0.286445   0.300725  -0.000000
    7  F  1  Z    0.263979   0.000000   0.000000  -0.000000   0.279198
    8  F  1  X   -0.000000   0.363913   0.000000  -0.000000  -0.000000
    9  F  1  Y   -0.000000   0.000000   0.353207   0.367939  -0.000000
   10  F  1  Z    0.328197   0.000000   0.000000  -0.000000   0.350769
   11  F  1  X   -0.000000   0.192788   0.000000  -0.000000  -0.000000
   12  F  1  Y   -0.000000   0.000000   0.217481   0.185771  -0.000000
   13  F  1  Z    0.254572   0.000000   0.000000  -0.000000   0.249149
   14  F  1 XX   -0.000077   0.000000   0.000000  -0.000000  -0.000094
   15  F  1 YY   -0.000090   0.000000   0.000000  -0.000000   0.000126
   16  F  1 ZZ    0.000167   0.000000   0.000000  -0.000000  -0.000032
   17  F  1 XY   -0.000000   0.000000   0.000000  -0.000000  -0.000000
   18  F  1 XZ   -0.000000   0.000228   0.000000  -0.000000  -0.000000
   19  F  1 YZ   -0.000000   0.000000   0.000191   0.000266  -0.000000
   20  F  1 XX   -0.004789   0.000000   0.000000  -0.000000   0.000413
   21  F  1 YY   -0.004567   0.000000   0.000000  -0.000000   0.000984
   22  F  1 ZZ    0.009356   0.000000   0.000000  -0.000000  -0.001397
   23  F  1 XY   -0.000000   0.000000   0.000000  -0.000000  -0.000000
   24  F  1 XZ   -0.000000   0.001323   0.000000  -0.000000  -0.000000
   25  F  1 YZ   -0.000000   0.000000   0.003923   0.001451  -0.000000
   26  F  1 XXX  -0.000000  -0.002188   0.000000  -0.000000  -0.000000
   27  F  1 YYY  -0.000000   0.000000  -0.000163   0.001296  -0.000000
   28  F  1 ZZZ   0.002595   0.000000   0.000000  -0.000000   0.000721
   29  F  1 XXY  -0.000000   0.000000  -0.001652  -0.002529  -0.000000
   30  F  1 XXZ  -0.002488   0.000000   0.000000  -0.000000  -0.002802
   31  F  1 YYX  -0.000000   0.000588   0.000000  -0.000000  -0.000000
   32  F  1 YYZ  -0.000993   0.000000   0.000000  -0.000000   0.001835
   33  F  1 ZZX  -0.000000   0.002347   0.000000  -0.000000  -0.000000
   34  F  1 ZZY  -0.000000   0.000000   0.001871   0.000790  -0.000000
   35  F  1 XYZ  -0.000000   0.000000   0.000000  -0.000000  -0.000000
   36  F  2  S    0.006248   0.000000   0.000000  -0.000000   0.003981
   37  F  2  S   -0.033868   0.000000   0.000000  -0.000000  -0.011762
   38  F  2  S   -0.008143   0.000000   0.000000  -0.000000  -0.003307
   39  F  2  S    0.016273   0.000000   0.000000  -0.000000  -0.004500
   40  F  2  X   -0.000000  -0.299548   0.000000  -0.000000  -0.000000
   41  F  2  Y   -0.000000   0.000000   0.286445  -0.300725  -0.000000
   42  F  2  Z   -0.263979   0.000000   0.000000  -0.000000   0.279198
   43  F  2  X   -0.000000  -0.363913   0.000000  -0.000000  -0.000000
   44  F  2  Y   -0.000000   0.000000   0.353207  -0.367939  -0.000000
   45  F  2  Z   -0.328197   0.000000   0.000000  -0.000000   0.350769
   46  F  2  X   -0.000000  -0.192788   0.000000  -0.000000  -0.000000
   47  F  2  Y   -0.000000   0.000000   0.217481  -0.185771  -0.000000
   48  F  2  Z   -0.254572   0.000000   0.000000  -0.000000   0.249149
   49  F  2 XX   -0.000077   0.000000   0.000000  -0.000000   0.000094
   50  F  2 YY   -0.000090   0.000000   0.000000  -0.000000  -0.000126
   51  F  2 ZZ    0.000167   0.000000   0.000000  -0.000000   0.000032
   52  F  2 XY   -0.000000   0.000000   0.000000  -0.000000  -0.000000
   53  F  2 XZ   -0.000000   0.000228   0.000000  -0.000000  -0.000000
   54  F  2 YZ   -0.000000   0.000000  -0.000191   0.000266  -0.000000
   55  F  2 XX   -0.004789   0.000000   0.000000  -0.000000  -0.000413
   56  F  2 YY   -0.004567   0.000000   0.000000  -0.000000  -0.000984
   57  F  2 ZZ    0.009356   0.000000   0.000000  -0.000000   0.001397
   58  F  2 XY   -0.000000   0.000000   0.000000  -0.000000  -0.000000
   59  F  2 XZ   -0.000000   0.001323   0.000000  -0.000000  -0.000000
   60  F  2 YZ   -0.000000   0.000000  -0.003923   0.001451  -0.000000
   61  F  2 XXX  -0.000000   0.002188   0.000000  -0.000000  -0.000000
   62  F  2 YYY  -0.000000   0.000000  -0.000163  -0.001296  -0.000000
   63  F  2 ZZZ  -0.002595   0.000000   0.000000  -0.000000   0.000721
   64  F  2 XXY  -0.000000   0.000000  -0.001652   0.002529  -0.000000
   65  F  2 XXZ   0.002488   0.000000   0.000000  -0.000000  -0.002802
   66  F  2 YYX  -0.000000  -0.000588   0.000000  -0.000000  -0.000000
   67  F  2 YYZ   0.000993   0.000000   0.000000  -0.000000   0.001835
   68  F  2 ZZX  -0.000000  -0.002347   0.000000  -0.000000  -0.000000
   69  F  2 ZZY  -0.000000   0.000000   0.001871  -0.000790  -0.000000
   70  F  2 XYZ  -0.000000   0.000000   0.000000  -0.000000  -0.000000

                     11         12         13         14         15
                    0.4669     0.6603     0.5159     0.5626     0.7443
                     B2U        B1U        B3U        B3G        AG  
    1  F  1  S   -0.000000  -0.026453  -0.000000  -0.000000   0.038092
    2  F  1  S   -0.000000   0.522736  -0.000000  -0.000000  -0.861465
    3  F  1  S   -0.000000   0.102546  -0.000000  -0.000000  -0.167780
    4  F  1  S   -0.000000  -0.637576  -0.000000  -0.000000   1.090378
    5  F  1  X   -0.000000  -0.000000  -0.171499  -0.000000  -0.000000
    6  F  1  Y   -0.187899  -0.000000  -0.000000  -0.180551  -0.000000
    7  F  1  Z   -0.000000  -0.146353  -0.000000  -0.000000   0.072881
    8  F  1  X   -0.000000  -0.000000  -0.472500  -0.000000  -0.000000
    9  F  1  Y   -0.475893  -0.000000  -0.000000  -0.466030  -0.000000
   10  F  1  Z   -0.000000  -0.425353  -0.000000  -0.000000   0.182640
   11  F  1  X   -0.000000  -0.000000   0.828904  -0.000000  -0.000000
   12  F  1  Y    0.818977  -0.000000  -0.000000   0.868341  -0.000000
   13  F  1  Z   -0.000000   0.753297  -0.000000  -0.000000  -0.321765
   14  F  1 XX   -0.000000  -0.002243  -0.000000  -0.000000   0.003312
   15  F  1 YY   -0.000000   0.001485  -0.000000  -0.000000  -0.002551
   16  F  1 ZZ   -0.000000   0.000758  -0.000000  -0.000000  -0.000761
   17  F  1 XY   -0.000000  -0.000000  -0.000000  -0.000000  -0.000000
   18  F  1 XZ   -0.000000  -0.000000  -0.001287  -0.000000  -0.000000
   19  F  1 YZ   -0.001246  -0.000000  -0.000000   0.000264  -0.000000
   20  F  1 XX   -0.000000   0.015091  -0.000000  -0.000000  -0.008590
   21  F  1 YY   -0.000000   0.014349  -0.000000  -0.000000  -0.004781
   22  F  1 ZZ   -0.000000  -0.029440  -0.000000  -0.000000   0.013371
   23  F  1 XY   -0.000000  -0.000000  -0.000000  -0.000000  -0.000000
   24  F  1 XZ   -0.000000  -0.000000   0.013537  -0.000000  -0.000000
   25  F  1 YZ    0.013909  -0.000000  -0.000000  -0.010573  -0.000000
   26  F  1 XXX  -0.000000  -0.000000   0.000980  -0.000000  -0.000000
   27  F  1 YYY  -0.001333  -0.000000  -0.000000  -0.000448  -0.000000
   28  F  1 ZZZ  -0.000000  -0.001300  -0.000000  -0.000000   0.000399
   29  F  1 XXY   0.001206  -0.000000  -0.000000   0.001310  -0.000000
   30  F  1 XXZ  -0.000000   0.001611  -0.000000  -0.000000  -0.000596
   31  F  1 YYX  -0.000000  -0.000000  -0.001184  -0.000000  -0.000000
   32  F  1 YYZ  -0.000000   0.000133  -0.000000  -0.000000   0.000060
   33  F  1 ZZX  -0.000000  -0.000000  -0.000131  -0.000000  -0.000000
   34  F  1 ZZY   0.000583  -0.000000  -0.000000  -0.000708  -0.000000
   35  F  1 XYZ  -0.000000  -0.000000  -0.000000  -0.000000  -0.000000
   36  F  2  S   -0.000000   0.026453  -0.000000  -0.000000   0.038092
   37  F  2  S   -0.000000  -0.522736  -0.000000  -0.000000  -0.861465
   38  F  2  S   -0.000000  -0.102546  -0.000000  -0.000000  -0.167780
   39  F  2  S   -0.000000   0.637576  -0.000000  -0.000000   1.090378
   40  F  2  X   -0.000000  -0.000000  -0.171499  -0.000000  -0.000000
   41  F  2  Y   -0.187899  -0.000000  -0.000000   0.180551  -0.000000
   42  F  2  Z   -0.000000  -0.146353  -0.000000  -0.000000  -0.072881
   43  F  2  X   -0.000000  -0.000000  -0.472500  -0.000000  -0.000000
   44  F  2  Y   -0.475893  -0.000000  -0.000000   0.466030  -0.000000
   45  F  2  Z   -0.000000  -0.425353  -0.000000  -0.000000  -0.182640
   46  F  2  X   -0.000000  -0.000000   0.828904  -0.000000  -0.000000
   47  F  2  Y    0.818977  -0.000000  -0.000000  -0.868341  -0.000000
   48  F  2  Z   -0.000000   0.753297  -0.000000  -0.000000   0.321765
   49  F  2 XX   -0.000000   0.002243  -0.000000  -0.000000   0.003312
   50  F  2 YY   -0.000000  -0.001485  -0.000000  -0.000000  -0.002551
   51  F  2 ZZ   -0.000000  -0.000758  -0.000000  -0.000000  -0.000761
   52  F  2 XY   -0.000000  -0.000000  -0.000000  -0.000000  -0.000000
   53  F  2 XZ   -0.000000  -0.000000   0.001287  -0.000000  -0.000000
   54  F  2 YZ    0.001246  -0.000000  -0.000000   0.000264  -0.000000
   55  F  2 XX   -0.000000  -0.015091  -0.000000  -0.000000  -0.008590
   56  F  2 YY   -0.000000  -0.014349  -0.000000  -0.000000  -0.004781
   57  F  2 ZZ   -0.000000   0.029440  -0.000000  -0.000000   0.013371
   58  F  2 XY   -0.000000  -0.000000  -0.000000  -0.000000  -0.000000
   59  F  2 XZ   -0.000000  -0.000000  -0.013537  -0.000000  -0.000000
   60  F  2 YZ   -0.013909  -0.000000  -0.000000  -0.010573  -0.000000
   61  F  2 XXX  -0.000000  -0.000000   0.000980  -0.000000  -0.000000
   62  F  2 YYY  -0.001333  -0.000000  -0.000000   0.000448  -0.000000
   63  F  2 ZZZ  -0.000000  -0.001300  -0.000000  -0.000000  -0.000399
   64  F  2 XXY   0.001206  -0.000000  -0.000000  -0.001310  -0.000000
   65  F  2 XXZ  -0.000000   0.001611  -0.000000  -0.000000   0.000596
   66  F  2 YYX  -0.000000  -0.000000  -0.001184  -0.000000  -0.000000
   67  F  2 YYZ  -0.000000   0.000133  -0.000000  -0.000000  -0.000060
   68  F  2 ZZX  -0.000000  -0.000000  -0.000131  -0.000000  -0.000000
   69  F  2 ZZY   0.000583  -0.000000  -0.000000   0.000708  -0.000000
   70  F  2 XYZ  -0.000000  -0.000000  -0.000000  -0.000000  -0.000000

                     16         17         18         19         20
                    0.6048     0.4364     0.9628     1.7616     1.8075
                     B2G        AG         B1U        B2U        B3U 
    1  F  1  S   -0.000000   0.016932   0.037804  -0.000000  -0.000000
    2  F  1  S   -0.000000  -0.321054  -0.774018  -0.000000  -0.000000
    3  F  1  S   -0.000000  -0.057699  -0.169681  -0.000000  -0.000000
    4  F  1  S   -0.000000   0.367574   1.026675  -0.000000  -0.000000
    5  F  1  X   -0.176485   0.000000  -0.000000  -0.000000   0.006928
    6  F  1  Y   -0.000000   0.000000  -0.000000   0.006684  -0.000000
    7  F  1  Z   -0.000000  -0.183499  -0.121822  -0.000000  -0.000000
    8  F  1  X   -0.476686   0.000000  -0.000000  -0.000000   0.007210
    9  F  1  Y   -0.000000   0.000000  -0.000000   0.006690  -0.000000
   10  F  1  Z   -0.000000  -0.462569  -0.309667  -0.000000  -0.000000
   11  F  1  X    0.870170   0.000000  -0.000000  -0.000000  -0.023396
   12  F  1  Y   -0.000000   0.000000  -0.000000  -0.024179  -0.000000
   13  F  1  Z   -0.000000   0.664087   0.623673  -0.000000  -0.000000
   14  F  1 XX   -0.000000   0.002389   0.000890  -0.000000  -0.000000
   15  F  1 YY   -0.000000   0.000007  -0.004196  -0.000000  -0.000000
   16  F  1 ZZ   -0.000000  -0.002396   0.003305  -0.000000  -0.000000
   17  F  1 XY   -0.000000   0.000000  -0.000000  -0.000000  -0.000000
   18  F  1 XZ    0.000336   0.000000  -0.000000  -0.000000  -0.003385
   19  F  1 YZ   -0.000000   0.000000  -0.000000  -0.000774  -0.000000
   20  F  1 XX   -0.000000  -0.018202   0.031678  -0.000000  -0.000000
   21  F  1 YY   -0.000000  -0.019338   0.042899  -0.000000  -0.000000
   22  F  1 ZZ   -0.000000   0.037541  -0.074577  -0.000000  -0.000000
   23  F  1 XY   -0.000000   0.000000  -0.000000  -0.000000  -0.000000
   24  F  1 XZ   -0.010366   0.000000  -0.000000  -0.000000   0.708542
   25  F  1 YZ   -0.000000   0.000000  -0.000000   0.707214  -0.000000
   26  F  1 XXX   0.001621   0.000000  -0.000000  -0.000000  -0.000694
   27  F  1 YYY  -0.000000   0.000000  -0.000000  -0.000689  -0.000000
   28  F  1 ZZZ  -0.000000   0.000764  -0.002388  -0.000000  -0.000000
   29  F  1 XXY  -0.000000   0.000000  -0.000000  -0.000305  -0.000000
   30  F  1 XXZ  -0.000000   0.000573   0.002058  -0.000000  -0.000000
   31  F  1 YYX  -0.000830   0.000000  -0.000000  -0.000000  -0.000300
   32  F  1 YYZ  -0.000000  -0.001599   0.001146  -0.000000  -0.000000
   33  F  1 ZZX  -0.001345   0.000000  -0.000000  -0.000000   0.001231
   34  F  1 ZZY  -0.000000   0.000000  -0.000000   0.001230  -0.000000
   35  F  1 XYZ  -0.000000   0.000000  -0.000000  -0.000000  -0.000000
   36  F  2  S   -0.000000   0.016932  -0.037804  -0.000000  -0.000000
   37  F  2  S   -0.000000  -0.321054   0.774018  -0.000000  -0.000000
   38  F  2  S   -0.000000  -0.057699   0.169681  -0.000000  -0.000000
   39  F  2  S   -0.000000   0.367574  -1.026675  -0.000000  -0.000000
   40  F  2  X    0.176485   0.000000  -0.000000  -0.000000   0.006928
   41  F  2  Y   -0.000000   0.000000  -0.000000   0.006684  -0.000000
   42  F  2  Z   -0.000000   0.183499  -0.121822  -0.000000  -0.000000
   43  F  2  X    0.476686   0.000000  -0.000000  -0.000000   0.007210
   44  F  2  Y   -0.000000   0.000000  -0.000000   0.006690  -0.000000
   45  F  2  Z   -0.000000   0.462569  -0.309667  -0.000000  -0.000000
   46  F  2  X   -0.870170   0.000000  -0.000000  -0.000000  -0.023396
   47  F  2  Y   -0.000000   0.000000  -0.000000  -0.024179  -0.000000
   48  F  2  Z   -0.000000  -0.664087   0.623673  -0.000000  -0.000000
   49  F  2 XX   -0.000000   0.002389  -0.000890  -0.000000  -0.000000
   50  F  2 YY   -0.000000   0.000007   0.004196  -0.000000  -0.000000
   51  F  2 ZZ   -0.000000  -0.002396  -0.003305  -0.000000  -0.000000
   52  F  2 XY   -0.000000   0.000000  -0.000000  -0.000000  -0.000000
   53  F  2 XZ    0.000336   0.000000  -0.000000  -0.000000   0.003385
   54  F  2 YZ   -0.000000   0.000000  -0.000000   0.000774  -0.000000
   55  F  2 XX   -0.000000  -0.018202  -0.031678  -0.000000  -0.000000
   56  F  2 YY   -0.000000  -0.019338  -0.042899  -0.000000  -0.000000
   57  F  2 ZZ   -0.000000   0.037541   0.074577  -0.000000  -0.000000
   58  F  2 XY   -0.000000   0.000000  -0.000000  -0.000000  -0.000000
   59  F  2 XZ   -0.010366   0.000000  -0.000000  -0.000000  -0.708542
   60  F  2 YZ   -0.000000   0.000000  -0.000000  -0.707214  -0.000000
   61  F  2 XXX  -0.001621   0.000000  -0.000000  -0.000000  -0.000694
   62  F  2 YYY  -0.000000   0.000000  -0.000000  -0.000689  -0.000000
   63  F  2 ZZZ  -0.000000  -0.000764  -0.002388  -0.000000  -0.000000
   64  F  2 XXY  -0.000000   0.000000  -0.000000  -0.000305  -0.000000
   65  F  2 XXZ  -0.000000  -0.000573   0.002058  -0.000000  -0.000000
   66  F  2 YYX   0.000830   0.000000  -0.000000  -0.000000  -0.000300
   67  F  2 YYZ  -0.000000   0.001599   0.001146  -0.000000  -0.000000
   68  F  2 ZZX   0.001345   0.000000  -0.000000  -0.000000   0.001231
   69  F  2 ZZY  -0.000000   0.000000  -0.000000   0.001230  -0.000000
   70  F  2 XYZ  -0.000000   0.000000  -0.000000  -0.000000  -0.000000

                     21         22         23         24         25
                    1.8079     1.7825     1.7713     1.7823     1.7539
                     AG         B1G        B1U        AU         AG  
    1  F  1  S    0.001513   0.000000  -0.002606  -0.000000   0.003418
    2  F  1  S   -0.029412   0.000000   0.029854  -0.000000  -0.025529
    3  F  1  S   -0.006468   0.000000   0.010003  -0.000000  -0.010549
    4  F  1  S    0.036979   0.000000  -0.044537  -0.000000   0.036656
    5  F  1  X   -0.000000   0.000000  -0.000000  -0.000000   0.000000
    6  F  1  Y   -0.000000   0.000000  -0.000000  -0.000000   0.000000
    7  F  1  Z   -0.014623   0.000000   0.019094  -0.000000  -0.015649
    8  F  1  X   -0.000000   0.000000  -0.000000  -0.000000   0.000000
    9  F  1  Y   -0.000000   0.000000  -0.000000  -0.000000   0.000000
   10  F  1  Z   -0.011753   0.000000   0.018509  -0.000000  -0.013970
   11  F  1  X   -0.000000   0.000000  -0.000000  -0.000000   0.000000
   12  F  1  Y   -0.000000   0.000000  -0.000000  -0.000000   0.000000
   13  F  1  Z    0.042072   0.000000  -0.057726  -0.000000   0.045920
   14  F  1 XX   -0.002037   0.000000  -0.000656  -0.000000  -0.002088
   15  F  1 YY   -0.001560   0.000000   0.002048  -0.000000   0.000587
   16  F  1 ZZ    0.003597   0.000000  -0.001392  -0.000000   0.001501
   17  F  1 XY   -0.000000   0.000830  -0.000000   0.000882   0.000000
   18  F  1 XZ   -0.000000   0.000000  -0.000000  -0.000000   0.000000
   19  F  1 YZ   -0.000000   0.000000  -0.000000  -0.000000   0.000000
   20  F  1 XX    0.686848   0.000000  -0.443228  -0.000000  -0.169552
   21  F  1 YY   -0.195688   0.000000   0.697032  -0.000000   0.678507
   22  F  1 ZZ   -0.491160   0.000000  -0.253805  -0.000000  -0.508955
   23  F  1 XY   -0.000000   0.706679  -0.000000   0.706669   0.000000
   24  F  1 XZ   -0.000000   0.000000  -0.000000  -0.000000   0.000000
   25  F  1 YZ   -0.000000   0.000000  -0.000000  -0.000000   0.000000
   26  F  1 XXX  -0.000000   0.000000  -0.000000  -0.000000   0.000000
   27  F  1 YYY  -0.000000   0.000000  -0.000000  -0.000000   0.000000
   28  F  1 ZZZ  -0.000846   0.000000  -0.000053  -0.000000  -0.000887
   29  F  1 XXY  -0.000000   0.000000  -0.000000  -0.000000   0.000000
   30  F  1 XXZ   0.001072   0.000000  -0.000645  -0.000000   0.000128
   31  F  1 YYX  -0.000000   0.000000  -0.000000  -0.000000   0.000000
   32  F  1 YYZ   0.000063   0.000000   0.000717  -0.000000   0.001062
   33  F  1 ZZX  -0.000000   0.000000  -0.000000  -0.000000   0.000000
   34  F  1 ZZY  -0.000000   0.000000  -0.000000  -0.000000   0.000000
   35  F  1 XYZ  -0.000000   0.000797  -0.000000   0.000806   0.000000
   36  F  2  S    0.001513   0.000000   0.002606  -0.000000   0.003418
   37  F  2  S   -0.029412   0.000000  -0.029854  -0.000000  -0.025529
   38  F  2  S   -0.006468   0.000000  -0.010003  -0.000000  -0.010549
   39  F  2  S    0.036979   0.000000   0.044537  -0.000000   0.036656
   40  F  2  X   -0.000000   0.000000  -0.000000  -0.000000   0.000000
   41  F  2  Y   -0.000000   0.000000  -0.000000  -0.000000   0.000000
   42  F  2  Z    0.014623   0.000000   0.019094  -0.000000   0.015649
   43  F  2  X   -0.000000   0.000000  -0.000000  -0.000000   0.000000
   44  F  2  Y   -0.000000   0.000000  -0.000000  -0.000000   0.000000
   45  F  2  Z    0.011753   0.000000   0.018509  -0.000000   0.013970
   46  F  2  X   -0.000000   0.000000  -0.000000  -0.000000   0.000000
   47  F  2  Y   -0.000000   0.000000  -0.000000  -0.000000   0.000000
   48  F  2  Z   -0.042072   0.000000  -0.057726  -0.000000  -0.045920
   49  F  2 XX   -0.002037   0.000000   0.000656  -0.000000  -0.002088
   50  F  2 YY   -0.001560   0.000000  -0.002048  -0.000000   0.000587
   51  F  2 ZZ    0.003597   0.000000   0.001392  -0.000000   0.001501
   52  F  2 XY   -0.000000   0.000830  -0.000000  -0.000882   0.000000
   53  F  2 XZ   -0.000000   0.000000  -0.000000  -0.000000   0.000000
   54  F  2 YZ   -0.000000   0.000000  -0.000000  -0.000000   0.000000
   55  F  2 XX    0.686848   0.000000   0.443228  -0.000000  -0.169552
   56  F  2 YY   -0.195688   0.000000  -0.697032  -0.000000   0.678507
   57  F  2 ZZ   -0.491160   0.000000   0.253805  -0.000000  -0.508955
   58  F  2 XY   -0.000000   0.706679  -0.000000  -0.706669   0.000000
   59  F  2 XZ   -0.000000   0.000000  -0.000000  -0.000000   0.000000
   60  F  2 YZ   -0.000000   0.000000  -0.000000  -0.000000   0.000000
   61  F  2 XXX  -0.000000   0.000000  -0.000000  -0.000000   0.000000
   62  F  2 YYY  -0.000000   0.000000  -0.000000  -0.000000   0.000000
   63  F  2 ZZZ   0.000846   0.000000  -0.000053  -0.000000   0.000887
   64  F  2 XXY  -0.000000   0.000000  -0.000000  -0.000000   0.000000
   65  F  2 XXZ  -0.001072   0.000000  -0.000645  -0.000000  -0.000128
   66  F  2 YYX  -0.000000   0.000000  -0.000000  -0.000000   0.000000
   67  F  2 YYZ  -0.000063   0.000000   0.000717  -0.000000  -0.001062
   68  F  2 ZZX  -0.000000   0.000000  -0.000000  -0.000000   0.000000
   69  F  2 ZZY  -0.000000   0.000000  -0.000000  -0.000000   0.000000
   70  F  2 XYZ  -0.000000  -0.000797  -0.000000   0.000806   0.000000

                     26         27         28         29         30
                    1.7704     1.8176     1.8496     4.4252     4.5027
                     B3G        B2G        B1U        B2U        AG  
    1  F  1  S   -0.000000  -0.000000   0.009477  -0.000000   0.011736
    2  F  1  S   -0.000000  -0.000000  -0.052792  -0.000000  -0.005255
    3  F  1  S   -0.000000  -0.000000  -0.030018  -0.000000  -0.031061
    4  F  1  S   -0.000000  -0.000000   0.092896  -0.000000   0.042208
    5  F  1  X   -0.000000  -0.010478  -0.000000  -0.000000   0.000000
    6  F  1  Y   -0.010791  -0.000000  -0.000000  -0.854827   0.000000
    7  F  1  Z   -0.000000  -0.000000  -0.047456  -0.000000  -0.857814
    8  F  1  X   -0.000000  -0.004725  -0.000000  -0.000000   0.000000
    9  F  1  Y   -0.004587  -0.000000  -0.000000   1.005700   0.000000
   10  F  1  Z   -0.000000  -0.000000  -0.040227  -0.000000   0.981885
   11  F  1  X   -0.000000   0.019298  -0.000000  -0.000000   0.000000
   12  F  1  Y    0.019369  -0.000000  -0.000000  -0.404949   0.000000
   13  F  1  Z   -0.000000  -0.000000   0.133528  -0.000000  -0.358869
   14  F  1 XX   -0.000000  -0.000000   0.001626  -0.000000  -0.003523
   15  F  1 YY   -0.000000  -0.000000  -0.000806  -0.000000  -0.004221
   16  F  1 ZZ   -0.000000  -0.000000  -0.000820  -0.000000   0.007744
   17  F  1 XY   -0.000000  -0.000000  -0.000000  -0.000000   0.000000
   18  F  1 XZ   -0.000000  -0.002884  -0.000000  -0.000000   0.000000
   19  F  1 YZ   -0.000231  -0.000000  -0.000000   0.002062   0.000000
   20  F  1 XX   -0.000000  -0.000000  -0.550854  -0.000000  -0.010541
   21  F  1 YY   -0.000000  -0.000000  -0.106192  -0.000000  -0.010027
   22  F  1 ZZ   -0.000000  -0.000000   0.657045  -0.000000   0.020567
   23  F  1 XY   -0.000000  -0.000000  -0.000000  -0.000000   0.000000
   24  F  1 XZ   -0.000000   0.708652  -0.000000  -0.000000   0.000000
   25  F  1 YZ    0.707310  -0.000000  -0.000000   0.005577   0.000000
   26  F  1 XXX  -0.000000  -0.000544  -0.000000  -0.000000   0.000000
   27  F  1 YYY  -0.000601  -0.000000  -0.000000   0.002310   0.000000
   28  F  1 ZZZ  -0.000000  -0.000000   0.000145  -0.000000  -0.001638
   29  F  1 XXY  -0.000243  -0.000000  -0.000000  -0.003218   0.000000
   30  F  1 XXZ  -0.000000  -0.000000  -0.000282  -0.000000  -0.001050
   31  F  1 YYX  -0.000000  -0.000271  -0.000000  -0.000000   0.000000
   32  F  1 YYZ  -0.000000  -0.000000   0.000087  -0.000000   0.003248
   33  F  1 ZZX  -0.000000   0.001000  -0.000000  -0.000000   0.000000
   34  F  1 ZZY   0.001050  -0.000000  -0.000000   0.000119   0.000000
   35  F  1 XYZ  -0.000000  -0.000000  -0.000000  -0.000000   0.000000
   36  F  2  S   -0.000000  -0.000000  -0.009477  -0.000000   0.011736
   37  F  2  S   -0.000000  -0.000000   0.052792  -0.000000  -0.005255
   38  F  2  S   -0.000000  -0.000000   0.030018  -0.000000  -0.031061
   39  F  2  S   -0.000000  -0.000000  -0.092896  -0.000000   0.042208
   40  F  2  X   -0.000000   0.010478  -0.000000  -0.000000   0.000000
   41  F  2  Y    0.010791  -0.000000  -0.000000  -0.854827   0.000000
   42  F  2  Z   -0.000000  -0.000000  -0.047456  -0.000000   0.857814
   43  F  2  X   -0.000000   0.004725  -0.000000  -0.000000   0.000000
   44  F  2  Y    0.004587  -0.000000  -0.000000   1.005700   0.000000
   45  F  2  Z   -0.000000  -0.000000  -0.040227  -0.000000  -0.981885
   46  F  2  X   -0.000000  -0.019298  -0.000000  -0.000000   0.000000
   47  F  2  Y   -0.019369  -0.000000  -0.000000  -0.404949   0.000000
   48  F  2  Z   -0.000000  -0.000000   0.133528  -0.000000   0.358869
   49  F  2 XX   -0.000000  -0.000000  -0.001626  -0.000000  -0.003523
   50  F  2 YY   -0.000000  -0.000000   0.000806  -0.000000  -0.004221
   51  F  2 ZZ   -0.000000  -0.000000   0.000820  -0.000000   0.007744
   52  F  2 XY   -0.000000  -0.000000  -0.000000  -0.000000   0.000000
   53  F  2 XZ   -0.000000  -0.002884  -0.000000  -0.000000   0.000000
   54  F  2 YZ   -0.000231  -0.000000  -0.000000  -0.002062   0.000000
   55  F  2 XX   -0.000000  -0.000000   0.550854  -0.000000  -0.010541
   56  F  2 YY   -0.000000  -0.000000   0.106192  -0.000000  -0.010027
   57  F  2 ZZ   -0.000000  -0.000000  -0.657045  -0.000000   0.020567
   58  F  2 XY   -0.000000  -0.000000  -0.000000  -0.000000   0.000000
   59  F  2 XZ   -0.000000   0.708652  -0.000000  -0.000000   0.000000
   60  F  2 YZ    0.707310  -0.000000  -0.000000  -0.005577   0.000000
   61  F  2 XXX  -0.000000   0.000544  -0.000000  -0.000000   0.000000
   62  F  2 YYY   0.000601  -0.000000  -0.000000   0.002310   0.000000
   63  F  2 ZZZ  -0.000000  -0.000000   0.000145  -0.000000   0.001638
   64  F  2 XXY   0.000243  -0.000000  -0.000000  -0.003218   0.000000
   65  F  2 XXZ  -0.000000  -0.000000  -0.000282  -0.000000   0.001050
   66  F  2 YYX  -0.000000   0.000271  -0.000000  -0.000000   0.000000
   67  F  2 YYZ  -0.000000  -0.000000   0.000087  -0.000000  -0.003248
   68  F  2 ZZX  -0.000000  -0.001000  -0.000000  -0.000000   0.000000
   69  F  2 ZZY  -0.001050  -0.000000  -0.000000   0.000119   0.000000
   70  F  2 XYZ  -0.000000  -0.000000  -0.000000  -0.000000   0.000000

                     31         32         33         34         35
                    4.5051     4.4860     4.5643     4.6658     6.8048
                     B3U        B3G        B2G        B1U        B2U 
    1  F  1  S    0.000000  -0.000000  -0.000000  -0.024829   0.000000
    2  F  1  S    0.000000  -0.000000  -0.000000   0.005537   0.000000
    3  F  1  S    0.000000  -0.000000  -0.000000   0.065210   0.000000
    4  F  1  S    0.000000  -0.000000  -0.000000  -0.079485   0.000000
    5  F  1  X   -0.854285  -0.000000  -0.855963  -0.000000   0.000000
    6  F  1  Y    0.000000  -0.854708  -0.000000  -0.000000  -0.001730
    7  F  1  Z    0.000000  -0.000000  -0.000000  -0.864001   0.000000
    8  F  1  X    1.004293  -0.000000   1.027280  -0.000000   0.000000
    9  F  1  Y    0.000000   1.030764  -0.000000  -0.000000   0.002510
   10  F  1  Z    0.000000  -0.000000  -0.000000   1.067827   0.000000
   11  F  1  X   -0.396844  -0.000000  -0.438119  -0.000000   0.000000
   12  F  1  Y    0.000000  -0.444747  -0.000000  -0.000000  -0.003872
   13  F  1  Z    0.000000  -0.000000  -0.000000  -0.542117   0.000000
   14  F  1 XX    0.000000  -0.000000  -0.000000   0.007870   0.000000
   15  F  1 YY    0.000000  -0.000000  -0.000000   0.009368   0.000000
   16  F  1 ZZ    0.000000  -0.000000  -0.000000  -0.017238   0.000000
   17  F  1 XY    0.000000  -0.000000  -0.000000  -0.000000   0.000000
   18  F  1 XZ    0.002038  -0.000000  -0.003840  -0.000000   0.000000
   19  F  1 YZ    0.000000  -0.003884  -0.000000  -0.000000   0.001713
   20  F  1 XX    0.000000  -0.000000  -0.000000   0.017896   0.000000
   21  F  1 YY    0.000000  -0.000000  -0.000000   0.016854   0.000000
   22  F  1 ZZ    0.000000  -0.000000  -0.000000  -0.034749   0.000000
   23  F  1 XY    0.000000  -0.000000  -0.000000  -0.000000   0.000000
   24  F  1 XZ    0.005597  -0.000000  -0.007054  -0.000000   0.000000
   25  F  1 YZ    0.000000  -0.007134  -0.000000  -0.000000  -0.001966
   26  F  1 XXX  -0.003487  -0.000000  -0.006042  -0.000000   0.000000
   27  F  1 YYY   0.000000   0.000063  -0.000000  -0.000000  -0.556186
   28  F  1 ZZZ   0.000000  -0.000000  -0.000000   0.012740   0.000000
   29  F  1 XXY   0.000000  -0.004459  -0.000000  -0.000000  -0.005040
   30  F  1 XXZ   0.000000  -0.000000  -0.000000  -0.010757   0.000000
   31  F  1 YYX   0.002837  -0.000000   0.001841  -0.000000   0.000000
   32  F  1 YYZ   0.000000  -0.000000  -0.000000  -0.006336   0.000000
   33  F  1 ZZX   0.001841  -0.000000   0.006265  -0.000000   0.000000
   34  F  1 ZZY   0.000000   0.004375  -0.000000  -0.000000   0.751241
   35  F  1 XYZ   0.000000  -0.000000  -0.000000  -0.000000   0.000000
   36  F  2  S    0.000000  -0.000000  -0.000000   0.024829   0.000000
   37  F  2  S    0.000000  -0.000000  -0.000000  -0.005537   0.000000
   38  F  2  S    0.000000  -0.000000  -0.000000  -0.065210   0.000000
   39  F  2  S    0.000000  -0.000000  -0.000000   0.079485   0.000000
   40  F  2  X   -0.854285  -0.000000   0.855963  -0.000000   0.000000
   41  F  2  Y    0.000000   0.854708  -0.000000  -0.000000  -0.001730
   42  F  2  Z    0.000000  -0.000000  -0.000000  -0.864001   0.000000
   43  F  2  X    1.004293  -0.000000  -1.027280  -0.000000   0.000000
   44  F  2  Y    0.000000  -1.030764  -0.000000  -0.000000   0.002510
   45  F  2  Z    0.000000  -0.000000  -0.000000   1.067827   0.000000
   46  F  2  X   -0.396844  -0.000000   0.438119  -0.000000   0.000000
   47  F  2  Y    0.000000   0.444747  -0.000000  -0.000000  -0.003872
   48  F  2  Z    0.000000  -0.000000  -0.000000  -0.542117   0.000000
   49  F  2 XX    0.000000  -0.000000  -0.000000  -0.007870   0.000000
   50  F  2 YY    0.000000  -0.000000  -0.000000  -0.009368   0.000000
   51  F  2 ZZ    0.000000  -0.000000  -0.000000   0.017238   0.000000
   52  F  2 XY    0.000000  -0.000000  -0.000000  -0.000000   0.000000
   53  F  2 XZ   -0.002038  -0.000000  -0.003840  -0.000000   0.000000
   54  F  2 YZ    0.000000  -0.003884  -0.000000  -0.000000  -0.001713
   55  F  2 XX    0.000000  -0.000000  -0.000000  -0.017896   0.000000
   56  F  2 YY    0.000000  -0.000000  -0.000000  -0.016854   0.000000
   57  F  2 ZZ    0.000000  -0.000000  -0.000000   0.034749   0.000000
   58  F  2 XY    0.000000  -0.000000  -0.000000  -0.000000   0.000000
   59  F  2 XZ   -0.005597  -0.000000  -0.007054  -0.000000   0.000000
   60  F  2 YZ    0.000000  -0.007134  -0.000000  -0.000000   0.001966
   61  F  2 XXX  -0.003487  -0.000000   0.006042  -0.000000   0.000000
   62  F  2 YYY   0.000000  -0.000063  -0.000000  -0.000000  -0.556186
   63  F  2 ZZZ   0.000000  -0.000000  -0.000000   0.012740   0.000000
   64  F  2 XXY   0.000000   0.004459  -0.000000  -0.000000  -0.005040
   65  F  2 XXZ   0.000000  -0.000000  -0.000000  -0.010757   0.000000
   66  F  2 YYX   0.002837  -0.000000  -0.001841  -0.000000   0.000000
   67  F  2 YYZ   0.000000  -0.000000  -0.000000  -0.006336   0.000000
   68  F  2 ZZX   0.001841  -0.000000  -0.006265  -0.000000   0.000000
   69  F  2 ZZY   0.000000  -0.004375  -0.000000  -0.000000   0.751241
   70  F  2 XYZ   0.000000  -0.000000  -0.000000  -0.000000   0.000000

                     36         37         38         39         40
                    6.8436     6.8051     6.8438     6.8663     6.8678
                     B3U        AG         B1G        AG         B2U 
    1  F  1  S   -0.000000  -0.003171   0.000000   0.002732  -0.000000
    2  F  1  S   -0.000000  -0.005926   0.000000   0.005261  -0.000000
    3  F  1  S   -0.000000   0.006851   0.000000  -0.005926  -0.000000
    4  F  1  S   -0.000000   0.001170   0.000000  -0.001036  -0.000000
    5  F  1  X   -0.001433  -0.000000   0.000000  -0.000000  -0.000000
    6  F  1  Y   -0.000000  -0.000000   0.000000  -0.000000  -0.002496
    7  F  1  Z   -0.000000  -0.005322   0.000000   0.001158  -0.000000
    8  F  1  X    0.001911  -0.000000   0.000000  -0.000000  -0.000000
    9  F  1  Y   -0.000000  -0.000000   0.000000  -0.000000   0.005236
   10  F  1  Z   -0.000000   0.008591   0.000000  -0.000599  -0.000000
   11  F  1  X   -0.003031  -0.000000   0.000000  -0.000000  -0.000000
   12  F  1  Y   -0.000000  -0.000000   0.000000  -0.000000  -0.001969
   13  F  1  Z   -0.000000  -0.008448   0.000000   0.003595  -0.000000
   14  F  1 XX   -0.000000  -0.000119   0.000000   0.001606  -0.000000
   15  F  1 YY   -0.000000  -0.001602   0.000000  -0.000497  -0.000000
   16  F  1 ZZ   -0.000000   0.001721   0.000000  -0.001110  -0.000000
   17  F  1 XY   -0.000000  -0.000000   0.001475  -0.000000  -0.000000
   18  F  1 XZ    0.001390  -0.000000   0.000000  -0.000000  -0.000000
   19  F  1 YZ   -0.000000  -0.000000   0.000000  -0.000000  -0.000394
   20  F  1 XX   -0.000000   0.000040   0.000000  -0.001701  -0.000000
   21  F  1 YY   -0.000000   0.001654   0.000000   0.000440  -0.000000
   22  F  1 ZZ   -0.000000  -0.001694   0.000000   0.001261  -0.000000
   23  F  1 XY   -0.000000  -0.000000  -0.001545  -0.000000  -0.000000
   24  F  1 XZ   -0.001609  -0.000000   0.000000  -0.000000  -0.000000
   25  F  1 YZ   -0.000000  -0.000000   0.000000  -0.000000   0.000484
   26  F  1 XXX  -0.023086  -0.000000   0.000000  -0.000000  -0.000000
   27  F  1 YYY  -0.000000  -0.000000   0.000000  -0.000000  -0.436635
   28  F  1 ZZZ  -0.000000   0.561548   0.000000  -0.429721  -0.000000
   29  F  1 XXY  -0.000000  -0.000000   0.000000  -0.000000   0.774571
   30  F  1 XXZ  -0.000000  -0.004554   0.000000   0.774578  -0.000000
   31  F  1 YYX  -0.596558  -0.000000   0.000000  -0.000000  -0.000000
   32  F  1 YYZ  -0.000000  -0.748843   0.000000  -0.198048  -0.000000
   33  F  1 ZZX   0.627531  -0.000000   0.000000  -0.000000  -0.000000
   34  F  1 ZZY  -0.000000  -0.000000   0.000000  -0.000000  -0.188764
   35  F  1 XYZ  -0.000000  -0.000000   0.707105  -0.000000  -0.000000
   36  F  2  S   -0.000000  -0.003171   0.000000   0.002732  -0.000000
   37  F  2  S   -0.000000  -0.005926   0.000000   0.005261  -0.000000
   38  F  2  S   -0.000000   0.006851   0.000000  -0.005926  -0.000000
   39  F  2  S   -0.000000   0.001170   0.000000  -0.001036  -0.000000
   40  F  2  X   -0.001433  -0.000000   0.000000  -0.000000  -0.000000
   41  F  2  Y   -0.000000  -0.000000   0.000000  -0.000000  -0.002496
   42  F  2  Z   -0.000000   0.005322   0.000000  -0.001158  -0.000000
   43  F  2  X    0.001911  -0.000000   0.000000  -0.000000  -0.000000
   44  F  2  Y   -0.000000  -0.000000   0.000000  -0.000000   0.005236
   45  F  2  Z   -0.000000  -0.008591   0.000000   0.000599  -0.000000
   46  F  2  X   -0.003031  -0.000000   0.000000  -0.000000  -0.000000
   47  F  2  Y   -0.000000  -0.000000   0.000000  -0.000000  -0.001969
   48  F  2  Z   -0.000000   0.008448   0.000000  -0.003595  -0.000000
   49  F  2 XX   -0.000000  -0.000119   0.000000   0.001606  -0.000000
   50  F  2 YY   -0.000000  -0.001602   0.000000  -0.000497  -0.000000
   51  F  2 ZZ   -0.000000   0.001721   0.000000  -0.001110  -0.000000
   52  F  2 XY   -0.000000  -0.000000   0.001475  -0.000000  -0.000000
   53  F  2 XZ   -0.001390  -0.000000   0.000000  -0.000000  -0.000000
   54  F  2 YZ   -0.000000  -0.000000   0.000000  -0.000000   0.000394
   55  F  2 XX   -0.000000   0.000040   0.000000  -0.001701  -0.000000
   56  F  2 YY   -0.000000   0.001654   0.000000   0.000440  -0.000000
   57  F  2 ZZ   -0.000000  -0.001694   0.000000   0.001261  -0.000000
   58  F  2 XY   -0.000000  -0.000000  -0.001545  -0.000000  -0.000000
   59  F  2 XZ    0.001609  -0.000000   0.000000  -0.000000  -0.000000
   60  F  2 YZ   -0.000000  -0.000000   0.000000  -0.000000  -0.000484
   61  F  2 XXX  -0.023086  -0.000000   0.000000  -0.000000  -0.000000
   62  F  2 YYY  -0.000000  -0.000000   0.000000  -0.000000  -0.436635
   63  F  2 ZZZ  -0.000000  -0.561548   0.000000   0.429721  -0.000000
   64  F  2 XXY  -0.000000  -0.000000   0.000000  -0.000000   0.774571
   65  F  2 XXZ  -0.000000   0.004554   0.000000  -0.774578  -0.000000
   66  F  2 YYX  -0.596558  -0.000000   0.000000  -0.000000  -0.000000
   67  F  2 YYZ  -0.000000   0.748843   0.000000   0.198048  -0.000000
   68  F  2 ZZX   0.627531  -0.000000   0.000000  -0.000000  -0.000000
   69  F  2 ZZY  -0.000000  -0.000000   0.000000  -0.000000  -0.188764
   70  F  2 XYZ  -0.000000  -0.000000  -0.707105  -0.000000  -0.000000

                     41         42         43         44         45
                    6.8748     6.8439     6.8679     6.8061     6.8438
                     B3U        B2G        B3G        B1U        AU  
    1  F  1  S    0.000000  -0.000000  -0.000000  -0.006951   0.000000
    2  F  1  S    0.000000  -0.000000  -0.000000  -0.012348   0.000000
    3  F  1  S    0.000000  -0.000000  -0.000000   0.015349   0.000000
    4  F  1  S    0.000000  -0.000000  -0.000000   0.000648   0.000000
    5  F  1  X   -0.002680   0.003300  -0.000000   0.000000   0.000000
    6  F  1  Y    0.000000  -0.000000  -0.003790   0.000000   0.000000
    7  F  1  Z    0.000000  -0.000000  -0.000000  -0.012356   0.000000
    8  F  1  X    0.005711  -0.006300  -0.000000   0.000000   0.000000
    9  F  1  Y    0.000000  -0.000000   0.008390   0.000000   0.000000
   10  F  1  Z    0.000000  -0.000000  -0.000000   0.019457   0.000000
   11  F  1  X   -0.001246   0.003782  -0.000000   0.000000   0.000000
   12  F  1  Y    0.000000  -0.000000  -0.004017   0.000000   0.000000
   13  F  1  Z    0.000000  -0.000000  -0.000000  -0.017304   0.000000
   14  F  1 XX    0.000000  -0.000000  -0.000000   0.000936   0.000000
   15  F  1 YY    0.000000  -0.000000  -0.000000   0.003060   0.000000
   16  F  1 ZZ    0.000000  -0.000000  -0.000000  -0.003997   0.000000
   17  F  1 XY    0.000000  -0.000000  -0.000000   0.000000   0.001524
   18  F  1 XZ   -0.000964   0.001673  -0.000000   0.000000   0.000000
   19  F  1 YZ    0.000000  -0.000000  -0.000639   0.000000   0.000000
   20  F  1 XX    0.000000  -0.000000  -0.000000   0.000218   0.000000
   21  F  1 YY    0.000000  -0.000000  -0.000000  -0.001737   0.000000
   22  F  1 ZZ    0.000000  -0.000000  -0.000000   0.001519   0.000000
   23  F  1 XY    0.000000  -0.000000  -0.000000   0.000000  -0.001577
   24  F  1 XZ    0.001167  -0.001529  -0.000000   0.000000   0.000000
   25  F  1 YZ    0.000000  -0.000000   0.000502   0.000000   0.000000
   26  F  1 XXX   0.706717  -0.016828  -0.000000   0.000000   0.000000
   27  F  1 YYY   0.000000  -0.000000  -0.435523   0.000000   0.000000
   28  F  1 ZZZ   0.000000  -0.000000  -0.000000  -0.554566   0.000000
   29  F  1 XXY   0.000000  -0.000000   0.774571   0.000000   0.000000
   30  F  1 XXZ   0.000000  -0.000000  -0.000000  -0.007813   0.000000
   31  F  1 YYX  -0.494074  -0.600905  -0.000000   0.000000   0.000000
   32  F  1 YYZ   0.000000  -0.000000  -0.000000   0.751841   0.000000
   33  F  1 ZZX  -0.454086   0.623482  -0.000000   0.000000   0.000000
   34  F  1 ZZY   0.000000  -0.000000  -0.190255   0.000000   0.000000
   35  F  1 XYZ   0.000000  -0.000000  -0.000000   0.000000   0.707105
   36  F  2  S    0.000000  -0.000000  -0.000000   0.006951   0.000000
   37  F  2  S    0.000000  -0.000000  -0.000000   0.012348   0.000000
   38  F  2  S    0.000000  -0.000000  -0.000000  -0.015349   0.000000
   39  F  2  S    0.000000  -0.000000  -0.000000  -0.000648   0.000000
   40  F  2  X   -0.002680  -0.003300  -0.000000   0.000000   0.000000
   41  F  2  Y    0.000000  -0.000000   0.003790   0.000000   0.000000
   42  F  2  Z    0.000000  -0.000000  -0.000000  -0.012356   0.000000
   43  F  2  X    0.005711   0.006300  -0.000000   0.000000   0.000000
   44  F  2  Y    0.000000  -0.000000  -0.008390   0.000000   0.000000
   45  F  2  Z    0.000000  -0.000000  -0.000000   0.019457   0.000000
   46  F  2  X   -0.001246  -0.003782  -0.000000   0.000000   0.000000
   47  F  2  Y    0.000000  -0.000000   0.004017   0.000000   0.000000
   48  F  2  Z    0.000000  -0.000000  -0.000000  -0.017304   0.000000
   49  F  2 XX    0.000000  -0.000000  -0.000000  -0.000936   0.000000
   50  F  2 YY    0.000000  -0.000000  -0.000000  -0.003060   0.000000
   51  F  2 ZZ    0.000000  -0.000000  -0.000000   0.003997   0.000000
   52  F  2 XY    0.000000  -0.000000  -0.000000   0.000000  -0.001524
   53  F  2 XZ    0.000964   0.001673  -0.000000   0.000000   0.000000
   54  F  2 YZ    0.000000  -0.000000  -0.000639   0.000000   0.000000
   55  F  2 XX    0.000000  -0.000000  -0.000000  -0.000218   0.000000
   56  F  2 YY    0.000000  -0.000000  -0.000000   0.001737   0.000000
   57  F  2 ZZ    0.000000  -0.000000  -0.000000  -0.001519   0.000000
   58  F  2 XY    0.000000  -0.000000  -0.000000   0.000000   0.001577
   59  F  2 XZ   -0.001167  -0.001529  -0.000000   0.000000   0.000000
   60  F  2 YZ    0.000000  -0.000000   0.000502   0.000000   0.000000
   61  F  2 XXX   0.706717   0.016828  -0.000000   0.000000   0.000000
   62  F  2 YYY   0.000000  -0.000000   0.435523   0.000000   0.000000
   63  F  2 ZZZ   0.000000  -0.000000  -0.000000  -0.554566   0.000000
   64  F  2 XXY   0.000000  -0.000000  -0.774571   0.000000   0.000000
   65  F  2 XXZ   0.000000  -0.000000  -0.000000  -0.007813   0.000000
   66  F  2 YYX  -0.494074   0.600905  -0.000000   0.000000   0.000000
   67  F  2 YYZ   0.000000  -0.000000  -0.000000   0.751841   0.000000
   68  F  2 ZZX  -0.454086  -0.623482  -0.000000   0.000000   0.000000
   69  F  2 ZZY   0.000000  -0.000000   0.190255   0.000000   0.000000
   70  F  2 XYZ   0.000000  -0.000000  -0.000000   0.000000   0.707105

                     46         47         48         49         50
                    6.8052     6.8751     6.8673     8.2022     8.2482
                     B3G        B2G        B1U        AG         B1G 
    1  F  1  S    0.000000   0.000000  -0.006040  -0.049792  -0.000000
    2  F  1  S    0.000000   0.000000  -0.010775  -0.117338  -0.000000
    3  F  1  S    0.000000   0.000000   0.013333   0.105050  -0.000000
    4  F  1  S    0.000000   0.000000   0.000607   0.047190  -0.000000
    5  F  1  X    0.000000  -0.006339  -0.000000   0.000000  -0.000000
    6  F  1  Y    0.004265   0.000000  -0.000000   0.000000  -0.000000
    7  F  1  Z    0.000000   0.000000  -0.012017  -0.012029  -0.000000
    8  F  1  X    0.000000   0.012071  -0.000000   0.000000  -0.000000
    9  F  1  Y   -0.006763   0.000000  -0.000000   0.000000  -0.000000
   10  F  1  Z    0.000000   0.000000   0.022881   0.024096  -0.000000
   11  F  1  X    0.000000  -0.006566  -0.000000   0.000000  -0.000000
   12  F  1  Y    0.004743   0.000000  -0.000000   0.000000  -0.000000
   13  F  1  Z    0.000000   0.000000  -0.016674  -0.022606  -0.000000
   14  F  1 XX    0.000000   0.000000   0.002595  -0.153217  -0.000000
   15  F  1 YY    0.000000   0.000000   0.000970   0.772037  -0.000000
   16  F  1 ZZ    0.000000   0.000000  -0.003565  -0.618820  -0.000000
   17  F  1 XY    0.000000   0.000000  -0.000000   0.000000   0.819338
   18  F  1 XZ    0.000000  -0.001353  -0.000000   0.000000  -0.000000
   19  F  1 YZ    0.002107   0.000000  -0.000000   0.000000  -0.000000
   20  F  1 XX    0.000000   0.000000  -0.001559   0.079663  -0.000000
   21  F  1 YY    0.000000   0.000000   0.000346  -0.390206  -0.000000
   22  F  1 ZZ    0.000000   0.000000   0.001213   0.310543  -0.000000
   23  F  1 XY    0.000000   0.000000  -0.000000   0.000000  -0.414615
   24  F  1 XZ    0.000000   0.001135  -0.000000   0.000000  -0.000000
   25  F  1 YZ   -0.001927   0.000000  -0.000000   0.000000  -0.000000
   26  F  1 XXX   0.000000   0.706875  -0.000000   0.000000  -0.000000
   27  F  1 YYY  -0.557061   0.000000  -0.000000   0.000000  -0.000000
   28  F  1 ZZZ   0.000000   0.000000  -0.438456   0.001059  -0.000000
   29  F  1 XXY  -0.003477   0.000000  -0.000000   0.000000  -0.000000
   30  F  1 XXZ   0.000000   0.000000   0.774457   0.000099  -0.000000
   31  F  1 YYX   0.000000  -0.488783  -0.000000   0.000000  -0.000000
   32  F  1 YYZ   0.000000   0.000000  -0.186207  -0.001520  -0.000000
   33  F  1 ZZX   0.000000  -0.459590  -0.000000   0.000000  -0.000000
   34  F  1 ZZY   0.750854   0.000000  -0.000000   0.000000  -0.000000
   35  F  1 XYZ   0.000000   0.000000  -0.000000   0.000000  -0.001274
   36  F  2  S    0.000000   0.000000   0.006040  -0.049792  -0.000000
   37  F  2  S    0.000000   0.000000   0.010775  -0.117338  -0.000000
   38  F  2  S    0.000000   0.000000  -0.013333   0.105050  -0.000000
   39  F  2  S    0.000000   0.000000  -0.000607   0.047190  -0.000000
   40  F  2  X    0.000000   0.006339  -0.000000   0.000000  -0.000000
   41  F  2  Y   -0.004265   0.000000  -0.000000   0.000000  -0.000000
   42  F  2  Z    0.000000   0.000000  -0.012017   0.012029  -0.000000
   43  F  2  X    0.000000  -0.012071  -0.000000   0.000000  -0.000000
   44  F  2  Y    0.006763   0.000000  -0.000000   0.000000  -0.000000
   45  F  2  Z    0.000000   0.000000   0.022881  -0.024096  -0.000000
   46  F  2  X    0.000000   0.006566  -0.000000   0.000000  -0.000000
   47  F  2  Y   -0.004743   0.000000  -0.000000   0.000000  -0.000000
   48  F  2  Z    0.000000   0.000000  -0.016674   0.022606  -0.000000
   49  F  2 XX    0.000000   0.000000  -0.002595  -0.153217  -0.000000
   50  F  2 YY    0.000000   0.000000  -0.000970   0.772037  -0.000000
   51  F  2 ZZ    0.000000   0.000000   0.003565  -0.618820  -0.000000
   52  F  2 XY    0.000000   0.000000  -0.000000   0.000000   0.819338
   53  F  2 XZ    0.000000  -0.001353  -0.000000   0.000000  -0.000000
   54  F  2 YZ    0.002107   0.000000  -0.000000   0.000000  -0.000000
   55  F  2 XX    0.000000   0.000000   0.001559   0.079663  -0.000000
   56  F  2 YY    0.000000   0.000000  -0.000346  -0.390206  -0.000000
   57  F  2 ZZ    0.000000   0.000000  -0.001213   0.310543  -0.000000
   58  F  2 XY    0.000000   0.000000  -0.000000   0.000000  -0.414615
   59  F  2 XZ    0.000000   0.001135  -0.000000   0.000000  -0.000000
   60  F  2 YZ   -0.001927   0.000000  -0.000000   0.000000  -0.000000
   61  F  2 XXX   0.000000  -0.706875  -0.000000   0.000000  -0.000000
   62  F  2 YYY   0.557061   0.000000  -0.000000   0.000000  -0.000000
   63  F  2 ZZZ   0.000000   0.000000  -0.438456  -0.001059  -0.000000
   64  F  2 XXY   0.003477   0.000000  -0.000000   0.000000  -0.000000
   65  F  2 XXZ   0.000000   0.000000   0.774457  -0.000099  -0.000000
   66  F  2 YYX   0.000000   0.488783  -0.000000   0.000000  -0.000000
   67  F  2 YYZ   0.000000   0.000000  -0.186207   0.001520  -0.000000
   68  F  2 ZZX   0.000000   0.459590  -0.000000   0.000000  -0.000000
   69  F  2 ZZY  -0.750854   0.000000  -0.000000   0.000000  -0.000000
   70  F  2 XYZ   0.000000   0.000000  -0.000000   0.000000   0.001274

                     51         52         53         54         55
                    8.2104     8.2754     8.2193     8.2484     8.2809
                     B2U        B3U        B1U        AU         AG  
    1  F  1  S   -0.000000  -0.000000   0.032654   0.000000  -0.013410
    2  F  1  S   -0.000000  -0.000000   0.066478   0.000000  -0.024571
    3  F  1  S   -0.000000  -0.000000  -0.070418   0.000000   0.028886
    4  F  1  S   -0.000000  -0.000000  -0.016700   0.000000   0.003934
    5  F  1  X   -0.000000   0.003424   0.000000   0.000000  -0.000000
    6  F  1  Y    0.003422  -0.000000   0.000000   0.000000  -0.000000
    7  F  1  Z   -0.000000  -0.000000   0.016056   0.000000  -0.009045
    8  F  1  X   -0.000000  -0.007901   0.000000   0.000000  -0.000000
    9  F  1  Y   -0.007939  -0.000000   0.000000   0.000000  -0.000000
   10  F  1  Z   -0.000000  -0.000000  -0.030963   0.000000   0.018390
   11  F  1  X   -0.000000   0.007851   0.000000   0.000000  -0.000000
   12  F  1  Y    0.007901  -0.000000   0.000000   0.000000  -0.000000
   13  F  1  Z   -0.000000  -0.000000   0.030696   0.000000  -0.016931
   14  F  1 XX   -0.000000  -0.000000  -0.295313   0.000000   0.804810
   15  F  1 YY   -0.000000  -0.000000   0.809033   0.000000  -0.270472
   16  F  1 ZZ   -0.000000  -0.000000  -0.513720   0.000000  -0.534339
   17  F  1 XY   -0.000000  -0.000000   0.000000   0.819344  -0.000000
   18  F  1 XZ   -0.000000   0.819280   0.000000   0.000000  -0.000000
   19  F  1 YZ    0.819287  -0.000000   0.000000   0.000000  -0.000000
   20  F  1 XX   -0.000000  -0.000000   0.149266   0.000000  -0.404740
   21  F  1 YY   -0.000000  -0.000000  -0.411270   0.000000   0.137973
   22  F  1 ZZ   -0.000000  -0.000000   0.262004   0.000000   0.266766
   23  F  1 XY   -0.000000  -0.000000   0.000000  -0.414682  -0.000000
   24  F  1 XZ   -0.000000  -0.410812   0.000000   0.000000  -0.000000
   25  F  1 YZ   -0.413068  -0.000000   0.000000   0.000000  -0.000000
   26  F  1 XXX  -0.000000   0.000880   0.000000   0.000000  -0.000000
   27  F  1 YYY   0.000946  -0.000000   0.000000   0.000000  -0.000000
   28  F  1 ZZZ  -0.000000  -0.000000   0.002759   0.000000   0.001141
   29  F  1 XXY   0.000393  -0.000000   0.000000   0.000000  -0.000000
   30  F  1 XXZ  -0.000000  -0.000000  -0.001084   0.000000  -0.001537
   31  F  1 YYX  -0.000000   0.000420   0.000000   0.000000  -0.000000
   32  F  1 YYZ  -0.000000  -0.000000  -0.002618   0.000000   0.000006
   33  F  1 ZZX  -0.000000  -0.001601   0.000000   0.000000  -0.000000
   34  F  1 ZZY  -0.001662  -0.000000   0.000000   0.000000  -0.000000
   35  F  1 XYZ  -0.000000  -0.000000   0.000000  -0.001317  -0.000000
   36  F  2  S   -0.000000  -0.000000  -0.032654   0.000000  -0.013410
   37  F  2  S   -0.000000  -0.000000  -0.066478   0.000000  -0.024571
   38  F  2  S   -0.000000  -0.000000   0.070418   0.000000   0.028886
   39  F  2  S   -0.000000  -0.000000   0.016700   0.000000   0.003934
   40  F  2  X   -0.000000   0.003424   0.000000   0.000000  -0.000000
   41  F  2  Y    0.003422  -0.000000   0.000000   0.000000  -0.000000
   42  F  2  Z   -0.000000  -0.000000   0.016056   0.000000   0.009045
   43  F  2  X   -0.000000  -0.007901   0.000000   0.000000  -0.000000
   44  F  2  Y   -0.007939  -0.000000   0.000000   0.000000  -0.000000
   45  F  2  Z   -0.000000  -0.000000  -0.030963   0.000000  -0.018390
   46  F  2  X   -0.000000   0.007851   0.000000   0.000000  -0.000000
   47  F  2  Y    0.007901  -0.000000   0.000000   0.000000  -0.000000
   48  F  2  Z   -0.000000  -0.000000   0.030696   0.000000   0.016931
   49  F  2 XX   -0.000000  -0.000000   0.295313   0.000000   0.804810
   50  F  2 YY   -0.000000  -0.000000  -0.809033   0.000000  -0.270472
   51  F  2 ZZ   -0.000000  -0.000000   0.513720   0.000000  -0.534339
   52  F  2 XY   -0.000000  -0.000000   0.000000  -0.819344  -0.000000
   53  F  2 XZ   -0.000000  -0.819280   0.000000   0.000000  -0.000000
   54  F  2 YZ   -0.819287  -0.000000   0.000000   0.000000  -0.000000
   55  F  2 XX   -0.000000  -0.000000  -0.149266   0.000000  -0.404740
   56  F  2 YY   -0.000000  -0.000000   0.411270   0.000000   0.137973
   57  F  2 ZZ   -0.000000  -0.000000  -0.262004   0.000000   0.266766
   58  F  2 XY   -0.000000  -0.000000   0.000000   0.414682  -0.000000
   59  F  2 XZ   -0.000000   0.410812   0.000000   0.000000  -0.000000
   60  F  2 YZ    0.413068  -0.000000   0.000000   0.000000  -0.000000
   61  F  2 XXX  -0.000000   0.000880   0.000000   0.000000  -0.000000
   62  F  2 YYY   0.000946  -0.000000   0.000000   0.000000  -0.000000
   63  F  2 ZZZ  -0.000000  -0.000000   0.002759   0.000000  -0.001141
   64  F  2 XXY   0.000393  -0.000000   0.000000   0.000000  -0.000000
   65  F  2 XXZ  -0.000000  -0.000000  -0.001084   0.000000   0.001537
   66  F  2 YYX  -0.000000   0.000420   0.000000   0.000000  -0.000000
   67  F  2 YYZ  -0.000000  -0.000000  -0.002618   0.000000  -0.000006
   68  F  2 ZZX  -0.000000  -0.001601   0.000000   0.000000  -0.000000
   69  F  2 ZZY  -0.001662  -0.000000   0.000000   0.000000  -0.000000
   70  F  2 XYZ  -0.000000  -0.000000   0.000000  -0.001317  -0.000000

                     56         57         58         59         60
                    8.2148     8.2798     9.2449     8.9057     8.2913
                     B3G        B2G        B1U        AG         B1U 
    1  F  1  S   -0.000000  -0.000000   0.817679   0.805574   0.069708
    2  F  1  S   -0.000000  -0.000000   2.022831   1.930573   0.162483
    3  F  1  S   -0.000000  -0.000000  -1.708341  -1.694653  -0.147708
    4  F  1  S   -0.000000  -0.000000  -0.920402  -0.811230  -0.063240
    5  F  1  X   -0.000000  -0.005852   0.000000   0.000000  -0.000000
    6  F  1  Y   -0.005883  -0.000000   0.000000   0.000000  -0.000000
    7  F  1  Z   -0.000000  -0.000000  -0.048725   0.021281   0.017020
    8  F  1  X   -0.000000   0.010017   0.000000   0.000000  -0.000000
    9  F  1  Y    0.010032  -0.000000   0.000000   0.000000  -0.000000
   10  F  1  Z   -0.000000  -0.000000   0.107766  -0.045490  -0.032437
   11  F  1  X   -0.000000  -0.008798   0.000000   0.000000  -0.000000
   12  F  1  Y   -0.008841  -0.000000   0.000000   0.000000  -0.000000
   13  F  1  Z   -0.000000  -0.000000  -0.127315   0.050776   0.031631
   14  F  1 XX   -0.000000  -0.000000  -0.056948   0.005512   0.762363
   15  F  1 YY   -0.000000  -0.000000  -0.024638   0.045167  -0.128311
   16  F  1 ZZ   -0.000000  -0.000000   0.081586  -0.050680  -0.634052
   17  F  1 XY   -0.000000  -0.000000   0.000000   0.000000  -0.000000
   18  F  1 XZ   -0.000000   0.819409   0.000000   0.000000  -0.000000
   19  F  1 YZ    0.819414  -0.000000   0.000000   0.000000  -0.000000
   20  F  1 XX   -0.000000  -0.000000   0.040059  -0.005247  -0.384562
   21  F  1 YY   -0.000000  -0.000000   0.021929  -0.027445   0.064271
   22  F  1 ZZ   -0.000000  -0.000000  -0.061988   0.032692   0.320291
   23  F  1 XY   -0.000000  -0.000000   0.000000   0.000000  -0.000000
   24  F  1 XZ   -0.000000  -0.411745   0.000000   0.000000  -0.000000
   25  F  1 YZ   -0.414038  -0.000000   0.000000   0.000000  -0.000000
   26  F  1 XXX  -0.000000   0.001184   0.000000   0.000000  -0.000000
   27  F  1 YYY   0.001105  -0.000000   0.000000   0.000000  -0.000000
   28  F  1 ZZZ  -0.000000  -0.000000  -0.009766   0.004592   0.002574
   29  F  1 XXY   0.000598  -0.000000   0.000000   0.000000  -0.000000
   30  F  1 XXZ  -0.000000  -0.000000   0.006838  -0.003202  -0.002553
   31  F  1 YYX  -0.000000   0.000433   0.000000   0.000000  -0.000000
   32  F  1 YYZ  -0.000000  -0.000000   0.006265  -0.002959  -0.000900
   33  F  1 ZZX  -0.000000  -0.002022   0.000000   0.000000  -0.000000
   34  F  1 ZZY  -0.002080  -0.000000   0.000000   0.000000  -0.000000
   35  F  1 XYZ  -0.000000  -0.000000   0.000000   0.000000  -0.000000
   36  F  2  S   -0.000000  -0.000000  -0.817679   0.805574  -0.069708
   37  F  2  S   -0.000000  -0.000000  -2.022831   1.930573  -0.162483
   38  F  2  S   -0.000000  -0.000000   1.708341  -1.694653   0.147708
   39  F  2  S   -0.000000  -0.000000   0.920402  -0.811230   0.063240
   40  F  2  X   -0.000000   0.005852   0.000000   0.000000  -0.000000
   41  F  2  Y    0.005883  -0.000000   0.000000   0.000000  -0.000000
   42  F  2  Z   -0.000000  -0.000000  -0.048725  -0.021281   0.017020
   43  F  2  X   -0.000000  -0.010017   0.000000   0.000000  -0.000000
   44  F  2  Y   -0.010032  -0.000000   0.000000   0.000000  -0.000000
   45  F  2  Z   -0.000000  -0.000000   0.107766   0.045490  -0.032437
   46  F  2  X   -0.000000   0.008798   0.000000   0.000000  -0.000000
   47  F  2  Y    0.008841  -0.000000   0.000000   0.000000  -0.000000
   48  F  2  Z   -0.000000  -0.000000  -0.127315  -0.050776   0.031631
   49  F  2 XX   -0.000000  -0.000000   0.056948   0.005512  -0.762363
   50  F  2 YY   -0.000000  -0.000000   0.024638   0.045167   0.128311
   51  F  2 ZZ   -0.000000  -0.000000  -0.081586  -0.050680   0.634052
   52  F  2 XY   -0.000000  -0.000000   0.000000   0.000000  -0.000000
   53  F  2 XZ   -0.000000   0.819409   0.000000   0.000000  -0.000000
   54  F  2 YZ    0.819414  -0.000000   0.000000   0.000000  -0.000000
   55  F  2 XX   -0.000000  -0.000000  -0.040059  -0.005247   0.384562
   56  F  2 YY   -0.000000  -0.000000  -0.021929  -0.027445  -0.064271
   57  F  2 ZZ   -0.000000  -0.000000   0.061988   0.032692  -0.320291
   58  F  2 XY   -0.000000  -0.000000   0.000000   0.000000  -0.000000
   59  F  2 XZ   -0.000000  -0.411745   0.000000   0.000000  -0.000000
   60  F  2 YZ   -0.414038  -0.000000   0.000000   0.000000  -0.000000
   61  F  2 XXX  -0.000000  -0.001184   0.000000   0.000000  -0.000000
   62  F  2 YYY  -0.001105  -0.000000   0.000000   0.000000  -0.000000
   63  F  2 ZZZ  -0.000000  -0.000000  -0.009766  -0.004592   0.002574
   64  F  2 XXY  -0.000598  -0.000000   0.000000   0.000000  -0.000000
   65  F  2 XXZ  -0.000000  -0.000000   0.006838   0.003202  -0.002553
   66  F  2 YYX  -0.000000  -0.000433   0.000000   0.000000  -0.000000
   67  F  2 YYZ  -0.000000  -0.000000   0.006265   0.002959  -0.000900
   68  F  2 ZZX  -0.000000   0.002022   0.000000   0.000000  -0.000000
   69  F  2 ZZY   0.002080  -0.000000   0.000000   0.000000  -0.000000
   70  F  2 XYZ  -0.000000  -0.000000   0.000000   0.000000  -0.000000
 ...... END OF ROHF CALCULATION ......
 STEP CPU TIME =     0.10 TOTAL CPU TIME =        0.3 (    0.0 MIN)
 TOTAL WALL CLOCK TIME=        0.3 SECONDS, CPU UTILIZATION IS  96.43%

     ----------------------------------------------------------------
     PROPERTY VALUES FOR THE ROHF  SELF-CONSISTENT FIELD WAVEFUNCTION
     ----------------------------------------------------------------

          ---------------------------------------
          MULLIKEN AND LOWDIN POPULATION ANALYSES
          ---------------------------------------

          MULLIKEN SPHERICAL HARMONIC POPULATIONS
       ATOM           S       P       D      F      G      H      I    TOTAL
    1 F             2.00    2.50    0.00   0.00   0.00   0.00   0.00    4.50
    2 F             2.00    2.50    0.00   0.00   0.00   0.00   0.00    4.50

          MULLIKEN SPHERICAL HARMONIC POPULATIONS
       ATOM           S       P       D      F      G      H      I    TOTAL
    1 F             2.00    2.00    0.00   0.00   0.00   0.00   0.00    4.00
    2 F             2.00    2.00    0.00   0.00   0.00   0.00   0.00    4.00

     ATOMIC SPIN POPULATION (ALPHA MINUS BETA)
       ATOM         MULL.POP.                    LOW.POP.
    1 F             0.500000                     0.500000
    2 F             0.500000                     0.500000

               ----- POPULATIONS IN EACH AO -----
                             MULLIKEN      LOWDIN
              1  F  1  S      1.96541     1.82137
              2  F  1  S      1.16094     0.45922
              3  F  1  S      0.29890     0.39477
              4  F  1  S      0.57578     0.35303
              5  F  1  X      0.66103     0.57440
              6  F  1  Y      0.47659     0.41326
              7  F  1  Z      0.26986     0.23061
              8  F  1  X      0.96436     0.54017
              9  F  1  Y      0.71387     0.40375
             10  F  1  Z      0.43180     0.25316
             11  F  1  X      0.37457     0.35673
             12  F  1  Y      0.30948     0.29101
             13  F  1  Z      0.29687     0.27654
             14  F  1 XX      0.00000     0.16641
             15  F  1 YY      0.00000     0.16560
             16  F  1 ZZ      0.00000     0.16484
             17  F  1 XY      0.00000     0.00000
             18  F  1 XZ      0.00000     0.00000
             19  F  1 YZ      0.00000     0.00000
             20  F  1 XX      0.00040     0.15952
             21  F  1 YY      0.00000     0.15817
             22  F  1 ZZ      0.00000     0.15780
             23  F  1 XY      0.00002     0.00000
             24  F  1 XZ      0.00005     0.00002
             25  F  1 YZ      0.00000     0.00004
             26  F  1 XXX     0.00000     0.27349
             27  F  1 YYY     0.00000     0.20534
             28  F  1 ZZZ     0.00002     0.12685
             29  F  1 XXY     0.00002     0.09177
             30  F  1 XXZ     0.00001     0.05565
             31  F  1 YYX     0.00000     0.12654
             32  F  1 YYZ     0.00001     0.05647
             33  F  1 ZZX     0.00000     0.12866
             34  F  1 ZZY     0.00000     0.09482
             35  F  1 XYZ     0.00000     0.00000
             36  F  2  S      1.96541     1.82137
             37  F  2  S      1.16094     0.45922
             38  F  2  S      0.29890     0.39477
             39  F  2  S      0.57578     0.35303
             40  F  2  X      0.66103     0.57440
             41  F  2  Y      0.47659     0.41326
             42  F  2  Z      0.26986     0.23061
             43  F  2  X      0.96436     0.54017
             44  F  2  Y      0.71387     0.40375
             45  F  2  Z      0.43180     0.25316
             46  F  2  X      0.37457     0.35673
             47  F  2  Y      0.30948     0.29101
             48  F  2  Z      0.29687     0.27654
             49  F  2 XX      0.00000     0.16641
             50  F  2 YY      0.00000     0.16560
             51  F  2 ZZ      0.00000     0.16484
             52  F  2 XY      0.00000     0.00000
             53  F  2 XZ      0.00000     0.00000
             54  F  2 YZ      0.00000     0.00000
             55  F  2 XX      0.00040     0.15952
             56  F  2 YY      0.00000     0.15817
             57  F  2 ZZ      0.00000     0.15780
             58  F  2 XY      0.00002     0.00000
             59  F  2 XZ      0.00005     0.00002
             60  F  2 YZ      0.00000     0.00004
             61  F  2 XXX     0.00000     0.27349
             62  F  2 YYY     0.00000     0.20534
             63  F  2 ZZZ     0.00002     0.12685
             64  F  2 XXY     0.00002     0.09177
             65  F  2 XXZ     0.00001     0.05565
             66  F  2 YYX     0.00000     0.12654
             67  F  2 YYZ     0.00001     0.05647
             68  F  2 ZZX     0.00000     0.12866
             69  F  2 ZZY     0.00000     0.09482
             70  F  2 XYZ     0.00000     0.00000

          ----- MULLIKEN ATOMIC OVERLAP POPULATIONS -----
          (OFF-DIAGONAL ELEMENTS NEED TO BE MULTIPLIED BY 2)

             1           2

    1    8.4560156
    2    0.0439844   8.4560156

          TOTAL MULLIKEN AND LOWDIN ATOMIC POPULATIONS
       ATOM         MULL.POP.    CHARGE          LOW.POP.     CHARGE
    1 F             8.500000    0.500000         8.500000    0.500000

          MULLIKEN SPHERICAL HARMONIC POPULATIONS
       ATOM           S       P       D      F      G      H      I    TOTAL
    1 F             4.00    4.50    0.00   0.00   0.00   0.00   0.00    8.50
    2 F             4.00    4.50    0.00   0.00   0.00   0.00   0.00    8.50

          -------------------------------
          BOND ORDER AND VALENCE ANALYSIS     BOND ORDER THRESHOLD=0.050
          -------------------------------

                   BOND                       BOND                       BOND
  ATOM PAIR DIST  ORDER      ATOM PAIR DIST  ORDER      ATOM PAIR DIST  ORDER
    1   2  2.644  1.503

                       TOTAL       BONDED        FREE
      ATOM            VALENCE     VALENCE     VALENCE
    1 F                 1.753       1.503       0.250
    2 F                 1.753       1.503       0.250

          -----------------------------------------
          ATOMIC SPIN DENSITY AT THE NUCLEUS (A.U.)
          -----------------------------------------
                            SPIN DENS    ALPHA DENS     BETA DENS
    1  F            9.0     0.0000000     217.05561       0.00000
    2  F            9.0     0.0000000     217.05559       0.00000

          ---------------------
          ELECTROSTATIC MOMENTS
          ---------------------

 POINT   1           X           Y           Z (BOHR)    CHARGE
                 0.000000    0.000000    0.000000        1.00 (A.U.)
         DX          DY          DZ         /D/  (DEBYE)
     0.000000    0.000000    0.000000    0.000000
 ...... END OF PROPERTY EVALUATION ......
 STEP CPU TIME =     0.02 TOTAL CPU TIME =        0.3 (    0.0 MIN)
 TOTAL WALL CLOCK TIME=        0.3 SECONDS, CPU UTILIZATION IS 100.00%

     ---------------------------
     COUPLED CLUSTER CALCULATION
     ---------------------------
 CCTYP                        =CCSD    
 TOTAL NUMBER OF MOS          =    60
 NUMBER OF OCCUPIED MOS       =     9
 NUMBER OF FROZEN CORE MOS    =     0
 NUMBER OF FROZEN VIRTUAL MOS =     0
 MAXIMUM CC ITERATIONS        =   100
 MAXIMUM DIIS ITERATIONS      =    -1
 CONVERGENCE CRITERION FOR CC =    10
 AMPLITUDE ACCURACY THRESHOLD = 0.0E+00

     --------------------------------------------
     PARTIAL TWO ELECTRON INTEGRAL TRANSFORMATION
     --------------------------------------------

 NUMBER OF CORE MOLECULAR ORBITALS     =    0
 NUMBER OF OCCUPIED MOLECULAR ORBITALS =   60
 TOTAL NUMBER OF MOLECULAR ORBITALS    =   60
 TOTAL NUMBER OF ATOMIC ORBITALS       =   70
 THRESHOLD FOR KEEPING TRANSFORMED 2E- INTEGRALS = 1.000E-09
 AO INTEGRALS WILL BE READ IN FROM DISK...
 # OF WORDS AVAILABLE =  100000000
 # OF WORDS NEEDED    =   10521642 FOR IN MEMORY TRANSFORMATION

 CHOOSING IN MEMORY PARTIAL TRANSFORMATION...
 TOTAL NUMBER OF TRANSFORMED 2E- INTEGRALS KEPT =    217148
 ... END OF INTEGRAL TRANSFORMATION ...
 STEP CPU TIME =     0.49 TOTAL CPU TIME =        0.8 (    0.0 MIN)
 TOTAL WALL CLOCK TIME=        0.8 SECONDS, CPU UTILIZATION IS  98.73%

   -----------------------     ----------------------------------------------
   ROHF-COUPLED-CLUSTER PROGRAM     XXXXXXXXXXXXXXXXXXXXXXXXXXXXXXXXXXX
   -----------------------     ----------------------------------------------
 JESTEM W ROCCDRVR

 THE FOLLOWING CALCULATIONS WILL BE PERFORMED:
                                                     CCSD   

 THE FOLLOWING ENERGY WILL BE CONSIDERED THE HIGHEST LEVEL:    CCSD   
 THE AVAILABLE REPLICATED MEMORY IS   100000000 WORDS.
 CONVERGENCE THRESHOLD:   1.0E-10
 MAXIMUM NUMBER OF ITERATIONS:  100
 ### NH NP ###                    9                   51
 BEFORE DRROSING
 THE EOM-CCSD POINT GROUP IS D2H
 JESTEM W DRROSING

 MEMORY TO BE USED IN CC INTEGRAL SORTING IS    12991830 WORDS.
 THE MINIMUM MEMORY TO ACCOMPLISH SORTING IS    12991830 WORDS.
 BEFORE ROSING
 NINTMX                15000
 JESTEM W ROSING STEP1
 JESTEM W ROSING STEP2
 NCCTCORR                   60
 JESTEM W ROSING STEP3
 NINTMX                15000
 JESTEM W ROSING STEP4
 JESTEM W ROSING STEP5
 JESTEM W ROSING STEP3
 NINTMX                15000
 JESTEM W ROSING STEP4
 JESTEM W ROSING STEP5
 JESTEM W ROSING STEP3
 NINTMX                15000
 JESTEM W ROSING STEP4
 JESTEM W ROSING STEP5
 JESTEM W ROSING STEP3
 NINTMX                15000
 JESTEM W ROSING STEP4
 JESTEM W ROSING STEP5
 JESTEM W ROSING STEP3
 NINTMX                15000
 JESTEM W ROSING STEP4
 JESTEM W ROSING STEP5
 JESTEM W ROSING STEP3
 NINTMX                15000
 JESTEM W ROSING STEP4
 JESTEM W ROSING STEP5
 JESTEM W ROSING STEP3
 NINTMX                15000
 JESTEM W ROSING STEP4
 JESTEM W ROSING STEP5
 JESTEM W ROSING STEP3
 NINTMX                15000
 JESTEM W ROSING STEP4
 JESTEM W ROSING STEP5
 JESTEM W ROSING STEP3
 NINTMX                15000
 JESTEM W ROSING STEP4
 JESTEM W ROSING STEP5
 JESTEM W ROSING STEP3
 NINTMX                15000
 JESTEM W ROSING STEP4
 JESTEM W ROSING STEP5
 JESTEM W ROSING STEP3
 NINTMX                15000
 JESTEM W ROSING STEP4
 JESTEM W ROSING STEP5
 JESTEM W ROSING STEP3
 NINTMX                15000
 JESTEM W ROSING STEP4
 JESTEM W ROSING STEP5
 JESTEM W ROSING STEP3
 NINTMX                15000
 JESTEM W ROSING STEP4
 JESTEM W ROSING STEP5
 JESTEM W ROSING STEP3
 NINTMX                15000
 JESTEM W ROSING STEP4
 JESTEM W ROSING STEP5
 JESTEM W ROSING STEP3
 NINTMX                15000
 JESTEM W ROSING STEP4
 JESTEM W ROSING STEP5
 JESTEM W ROSING
 ....... DONE WITH CC INTEGRAL PREPARATION .......
 STEP CPU TIME =    14.96 TOTAL CPU TIME =       15.7 (    0.3 MIN)
 TOTAL WALL CLOCK TIME=       15.8 SECONDS, CPU UTILIZATION IS  99.94%
             12991830  WORDS OF DYNAMIC MEMORY USED
 EXECUTION OF GAMESS TERMINATED NORMALLY Mon Jul  5 12:36:22 2021
 DDI: 263624 bytes (0.3 MB / 0 MWords) used by master data server.

 ----------------------------------------
 CPU timing information for all processes
 ========================================
 0: 9.530 + 6.236 = 15.766
 ----------------------------------------
 ddikick.x: exited gracefully.
----- accounting info -----
Files used on the master node coupled.cem.msu.edu were:
-rw-r--r-- 1 gururang piecuch   69435 Jul  5 12:36 /scratch/gururang/F2+-2.0-VTZ.F05
-rw-r--r-- 1 gururang piecuch 2700240 Jul  5 12:36 /scratch/gururang/F2+-2.0-VTZ.F08
-rw-r--r-- 1 gururang piecuch 2714888 Jul  5 12:36 /scratch/gururang/F2+-2.0-VTZ.F09
-rw-r--r-- 1 gururang piecuch 1505120 Jul  5 12:36 /scratch/gururang/F2+-2.0-VTZ.F10
-rw-r--r-- 1 gururang piecuch       0 Jul  5 12:36 /scratch/gururang/F2+-2.0-VTZ.F72
Mon Jul  5 12:36:26 EDT 2021
0.142u 0.243s 0:19.18 1.9%	0+0k 0+133176io 0pf+0w
