----- GAMESS execution script -----
This job is running on host cluster.cem.msu.edu
under operating system Linux at Sat May 9 01:52:29 EDT 2020
Available scratch disk space (Kbyte units) at beginning of the job is
Filesystem      1K-blocks       Used Available Use% Mounted on
/dev/sdb2      2619147912 1987407908 498688204  80% /scratch

 Distributed Data Interface kickoff program.
 Initiating 1 compute processes on 1 nodes to run the following command:
 /home2/chakra56/CC_PACKAGE/gamess/gamess.00.x TMM_B1A1_ccpvdz_rhf 

          ******************************************************
          *         GAMESS VERSION = 25 MAR 2010 (R1)          *
          *             FROM IOWA STATE UNIVERSITY             *
          * M.W.SCHMIDT, K.K.BALDRIDGE, J.A.BOATZ, S.T.ELBERT, *
          *   M.S.GORDON, J.H.JENSEN, S.KOSEKI, N.MATSUNAGA,   *
          *          K.A.NGUYEN, S.J.SU, T.L.WINDUS,           *
          *       TOGETHER WITH M.DUPUIS, J.A.MONTGOMERY       *
          *         J.COMPUT.CHEM.  14, 1347-1363(1993)        *
          **************** 64 BIT INTEL VERSION ****************

  SINCE 1993, STUDENTS AND POSTDOCS WORKING AT IOWA STATE UNIVERSITY
  AND ALSO IN THEIR VARIOUS JOBS AFTER LEAVING ISU HAVE MADE IMPORTANT
  CONTRIBUTIONS TO THE CODE:
     IVANA ADAMOVIC, CHRISTINE AIKENS, YURI ALEXEEV, POOJA ARORA,
     ANDREY ASADCHEV, ROB BELL, PRADIPTA BANDYOPADHYAY, JONATHAN BENTZ,
     BRETT BODE, GALINA CHABAN, WEI CHEN, CHEOL HO CHOI, PAUL DAY, TIM DUDLEY,
     DMITRI FEDOROV, GRAHAM FLETCHER, MARK FREITAG, KURT GLAESEMANN, DAN KEMP,
     GRANT MERRILL, JONATHAN MULLIN, TAKESHI NAGATA, SEAN NEDD,
     HEATHER NETZLOFF, BOSILJKA NJEGIC, RYAN OLSON, MIKE PAK, JIM SHOEMAKER,
     LYUDMILA SLIPCHENKO, SAROM SOK, JIE SONG, TETSUYA TAKETSUGU,
     SIMON WEBB, SOOHAENG YOO, FEDERICO ZAHARIEV

  ADDITIONAL CODE HAS BEEN PROVIDED BY COLLABORATORS IN OTHER GROUPS:
     IOWA STATE UNIVERSITY: JOE IVANIC, LAIMUTIS BYTAUTAS,
          KLAUS RUEDENBERG
     UNIVERSITY OF TOKYO: KIMIHIKO HIRAO, TAKAHITO NAKAJIMA,
          TAKAO TSUNEDA, MUNEAKI KAMIYA, SUSUMU YANAGISAWA,
          KIYOSHI YAGI, MAHITO CHIBA, SEIKEN TOKURA, NAOAKI KAWAKAMI
     UNIVERSITY OF AARHUS: FRANK JENSEN
     UNIVERSITY OF IOWA: VISVALDAS KAIRYS, HUI LI
     NATIONAL INST. OF STANDARDS AND TECHNOLOGY: WALT STEVENS, DAVID GARMER
     UNIVERSITY OF PISA: BENEDETTA MENNUCCI, JACOPO TOMASI
     UNIVERSITY OF MEMPHIS: HENRY KURTZ, PRAKASHAN KORAMBATH
     UNIVERSITY OF ALBERTA: MARIUSZ KLOBUKOWSKI
     UNIVERSITY OF NEW ENGLAND: MARK SPACKMAN
     MIE UNIVERSITY: HIROAKI UMEDA
     MICHIGAN STATE UNIVERSITY:
          KAROL KOWALSKI, MARTA WLOCH, JEFFREY GOUR, JESSE LUTZ, PIOTR PIECUCH
     UNIVERSITY OF SILESIA: MONIKA MUSIAL, STANISLAW KUCHARSKI
     FACULTES UNIVERSITAIRES NOTRE-DAME DE LA PAIX:
          OLIVIER QUINET, BENOIT CHAMPAGNE
     UNIVERSITY OF CALIFORNIA - SANTA BARBARA: BERNARD KIRTMAN
     INSTITUTE FOR MOLECULAR SCIENCE: KAZUYA ISHIMURA AND SHIGERU NAGASE
     UNIVERSITY OF NOTRE DAME: DAN CHIPMAN
     KYUSHU UNIVERSITY:
          HARUYUKI NAKANO,
          FENG LONG GU, JACEK KORCHOWIEC, MARCIN MAKOWSKI, AND YURIKO AOKI,
          HIROTOSHI MORI AND EISAKU MIYOSHI
     PENNSYLVANIA STATE UNIVERSITY:
          TZVETELIN IORDANOV, CHET SWALINA, JONATHAN SKONE,
          SHARON HAMMES-SCHIFFER
     WASEDA UNIVERSITY:
          MASATO KOBAYASHI, TOMOKO AKAMA, HIROMI NAKAI
     UNIVERSITY OF NEBRASKA:
          PEIFENG SU, DEJUN SI, YALI WANG, HUI LI

 EXECUTION OF GAMESS BEGUN Sat May  9 01:52:29 2020

            ECHO OF THE FIRST FEW INPUT CARDS -
 INPUT CARD> $CONTRL RUNTYP=ENERGY SCFTYP=ROHF CCTYP=CCSD MAXIT=100                         
 INPUT CARD>         ISPHER = 1 MULT=1 ICHARG=0 COORD=UNIQUE UNITS=ANGS                     
 INPUT CARD>         ICUT=20 MAXIT=100 GEOM=INPUT ITOL=30 $END                              
 INPUT CARD> $SCF    RSTRCT=.TRUE. CONV=12 DIIS=.TRUE. $END                                 
 INPUT CARD> $SYSTEM MWORDS=2000 TIMLIM=9999999999 $END                                     
 INPUT CARD> $BASIS  GBASIS=CCD $END                                                        
 INPUT CARD> $GUESS GUESS=MOREAD NORB=86 $END                                               
 INPUT CARD> $CCINP NFZV=0 NCORE=0 ICONV=12 MAXCC=1000 MULT=1 $END $END                     
 INPUT CARD> $DATA                                                                          
 INPUT CARD> TMM-A11-cc-pVDZ                                                                
 INPUT CARD>CNV 2                                                                           
 INPUT CARD>                                                                                
 INPUT CARD>C  6.0   0.00000000   0.00000000   -1.36879124                                  
 INPUT CARD>C  6.0   0.00000000   0.00000000   -0.03039124                                  
 INPUT CARD>C  6.0   0.00000000   1.24642508    0.71557878                                  
 INPUT CARD>H  1.0   0.00000000  -0.92193167   -1.92612174                                  
 INPUT CARD>H  1.0   0.00000000  -1.25280066    1.78995986                                  
 INPUT CARD>H  1.0   0.00000000  -2.18901096    0.19995565                                  
 INPUT CARD> $END                                                                           
 INPUT CARD>--- OPEN SHELL ORBITALS --- GENERATED AT Mon Mar 30 22:41:56 2020               
 INPUT CARD> TMM-A11-cc-pVDZ                                                                
 INPUT CARD>E(ROHF)=     -154.7517626207, E(NUC)=  105.6221399914,    9 ITERS               
 INPUT CARD> $VEC                                                                           
 INPUT CARD> 1  1 1.00192421E+00 3.90524757E-03-7.89594846E-03 0.00000000E+00 0.00000000E+00
 INPUT CARD> 1  2-3.62855734E-04 0.00000000E+00 0.00000000E+00-6.50446230E-04-9.46163087E-04
 INPUT CARD> 1  3 4.68840577E-04 4.77322510E-04 0.00000000E+00 0.00000000E+00 0.00000000E+00
 INPUT CARD> 1  4 8.36250864E-03-2.31879109E-04 9.59235279E-04 0.00000000E+00 0.00000000E+00
 INPUT CARD> 1  5 8.99617085E-05 0.00000000E+00 0.00000000E+00-1.55477011E-03 3.33977167E-04
 INPUT CARD> 1  6-3.26265977E-04-7.71118966E-06 0.00000000E+00 0.00000000E+00 0.00000000E+00
 INPUT CARD> 1  7-4.37677016E-06-7.85859627E-05 8.44258960E-04 0.00000000E+00 7.87946753E-05
 INPUT CARD> 1  8-1.38425840E-05 0.00000000E+00 3.64194153E-04-2.60859576E-04-1.14200341E-04
 INPUT CARD> 1  9-1.24250086E-05 1.26625350E-04 0.00000000E+00 0.00000000E+00-1.25595234E-04
 INPUT CARD> 1 10-4.37677016E-06-7.85859627E-05 8.44258960E-04 0.00000000E+00-7.87946753E-05
 INPUT CARD> 1 11-1.38425840E-05 0.00000000E+00-3.64194153E-04-2.60859576E-04-1.14200341E-04
 INPUT CARD> 1 12-1.24250086E-05 1.26625350E-04 0.00000000E+00 0.00000000E+00 1.25595234E-04
 INPUT CARD> 1 13-3.96003120E-04 1.21403397E-03 0.00000000E+00 5.01261855E-04-2.33405648E-04
 INPUT CARD> 1 14-3.96003120E-04 1.21403397E-03 0.00000000E+00-5.01261855E-04-2.33405648E-04
 INPUT CARD> 1 15-8.66673079E-05 9.38079344E-05 0.00000000E+00-2.86310271E-05 4.42043942E-05
 INPUT CARD> 1 16-8.66673079E-05 9.38079344E-05 0.00000000E+00 2.86310271E-05 4.42043942E-05
 INPUT CARD> 1 17-3.40433723E-05-5.81015441E-05 0.00000000E+00 1.13947960E-05 4.16473271E-05
 INPUT CARD> 1 18-3.40433723E-05-5.81015441E-05 0.00000000E+00-1.13947960E-05 4.16473271E-05
 INPUT CARD> 2  1-9.23173308E-03-6.42256930E-04 2.85757302E-03 0.00000000E+00 0.00000000E+00
 INPUT CARD> 2  2-2.50424906E-04 0.00000000E+00 0.00000000E+00 1.33711247E-03 4.24455288E-04
 INPUT CARD> 2  3-6.50950080E-05-3.59360280E-04 0.00000000E+00 0.00000000E+00 0.00000000E+00
 INPUT CARD> 2  4 1.00200811E+00 4.36613760E-03-9.87143961E-03 0.00000000E+00 0.00000000E+00
 INPUT CARD> 2  5-8.18652759E-04 0.00000000E+00 0.00000000E+00 1.03195888E-03-5.82228217E-04
 INPUT CARD> 2  6-2.52556848E-05 6.07483901E-04 0.00000000E+00 0.00000000E+00 0.00000000E+00
 INPUT CARD> 2  7 7.83784835E-03-1.78606757E-04 1.54573146E-03 0.00000000E+00 6.50804848E-06
 INPUT CARD> 2  8 4.92782319E-06 0.00000000E+00 6.04586830E-04-7.30586221E-04 2.86425726E-04
 INPUT CARD> 2  9-2.68928705E-04-1.74970212E-05 0.00000000E+00 0.00000000E+00 6.53399068E-05
 2000000000 WORDS OF MEMORY AVAILABLE

     BASIS OPTIONS
     -------------
     GBASIS=CCD          IGAUSS=       0      POLAR=NONE    
     NDFUNC=       0     NFFUNC=       0     DIFFSP=       F
     NPFUNC=       0      DIFFS=       F


     RUN TITLE
     ---------
  TMM-A11-cc-pVDZ                                                                

 THE POINT GROUP OF THE MOLECULE IS CNV     
 THE ORDER OF THE PRINCIPAL AXIS IS     2

 ATOM      ATOMIC                      COORDINATES (BOHR)
           CHARGE         X                   Y                   Z
 C           6.0     0.0000000000        0.0000000000       -2.5866403780
 C           6.0     0.0000000000        0.0000000000       -0.0574311160
 C           6.0     0.0000000000       -2.3554018654        1.3522478168
 C           6.0     0.0000000000        2.3554018654        1.3522478168
 H           1.0     0.0000000000        1.7421982357       -3.6398423076
 H           1.0     0.0000000000       -1.7421982357       -3.6398423076
 H           1.0     0.0000000000        2.3674499646        3.3825336644
 H           1.0     0.0000000000       -2.3674499646        3.3825336644
 H           1.0     0.0000000000        4.1366308985        0.3778613882
 H           1.0     0.0000000000       -4.1366308985        0.3778613882

          INTERNUCLEAR DISTANCES (ANGS.)
          ------------------------------

                1 C          2 C          3 C          4 C          5 H     

   1 C       0.0000000    1.3384000 *  2.4286156 *  2.4286156 *  1.0773000 *
   2 C       1.3384000 *  0.0000000    1.4526000 *  1.4526000 *  2.1080209 *
   3 C       2.4286156 *  1.4526000 *  0.0000000    2.4928502 *  3.4176531  
   4 C       2.4286156 *  1.4526000 *  2.4928502 *  0.0000000    2.6615555 *
   5 H       1.0773000 *  2.1080209 *  3.4176531    2.6615555 *  0.0000000  
   6 H       1.0773000 *  2.1080209 *  2.6615555 *  3.4176531    1.8438633 *
   7 H       3.3981198    2.2097936 *  2.7203720 *  1.0744000 *  3.7307823  
   8 H       3.3981198    2.2097936 *  1.0744000 *  2.7203720 *  4.3056618  
   9 H       2.6930904 *  2.2010972 *  3.4739154    1.0744000 *  2.4750141 *
  10 H       2.6930904 *  2.2010972 *  1.0744000 *  3.4739154    3.7680458  

                6 H          7 H          8 H          9 H         10 H     

   1 C       1.0773000 *  3.3981198    3.3981198    2.6930904 *  2.6930904 *
   2 C       2.1080209 *  2.2097936 *  2.2097936 *  2.2010972 *  2.2010972 *
   3 C       2.6615555 *  2.7203720 *  1.0744000 *  3.4739154    1.0744000 *
   4 C       3.4176531    1.0744000 *  2.7203720 *  1.0744000 *  3.4739154  
   5 H       1.8438633 *  3.7307823    4.3056618    2.4750141 *  3.7680458  
   6 H       0.0000000    4.3056618    3.7307823    3.7680458    2.4750141 *
   7 H       4.3056618    0.0000000    2.5056013 *  1.8451567 *  3.7913297  
   8 H       3.7307823    2.5056013 *  0.0000000    3.7913297    1.8451567 *
   9 H       3.7680458    1.8451567 *  3.7913297    0.0000000    4.3780219  
  10 H       2.4750141 *  3.7913297    1.8451567 *  4.3780219    0.0000000  

  * ... LESS THAN  3.000


     ATOMIC BASIS SET
     ----------------
 THE CONTRACTED PRIMITIVE FUNCTIONS HAVE BEEN UNNORMALIZED
 THE CONTRACTED BASIS FUNCTIONS ARE NOW NORMALIZED TO UNITY

  SHELL TYPE  PRIMITIVE        EXPONENT          CONTRACTION COEFFICIENT(S)

 C         

      1   S       1          6665.0000000    0.000691583963
      1   S       2          1000.0000000    0.005325796153
      1   S       3           228.0000000    0.027060721042
      1   S       4            64.7100000    0.101656846141
      1   S       5            21.0600000    0.274574823617
      1   S       6             7.4950000    0.448294318924
      1   S       7             2.7970000    0.284902610715
      1   S       8             0.5215000    0.015194859206

      2   S       9          6665.0000000   -0.000293269653
      2   S      10          1000.0000000   -0.002318035474
      2   S      11           228.0000000   -0.011499786039
      2   S      12            64.7100000   -0.046826727010
      2   S      13            21.0600000   -0.128466168750
      2   S      14             7.4950000   -0.301266272463
      2   S      15             2.7970000   -0.255630702330
      2   S      16             0.5215000    1.093793361012

      3   S      17             0.1596000    1.000000000000

      4   P      18             9.4390000    0.056979251590
      4   P      19             2.0020000    0.313207211501
      4   P      20             0.5456000    0.760376741738

      5   P      21             0.1517000    1.000000000000

      6   D      22             0.5500000    1.000000000000

 C         

      7   S      23          6665.0000000    0.000691583963
      7   S      24          1000.0000000    0.005325796153
      7   S      25           228.0000000    0.027060721042
      7   S      26            64.7100000    0.101656846141
      7   S      27            21.0600000    0.274574823617
      7   S      28             7.4950000    0.448294318924
      7   S      29             2.7970000    0.284902610715
      7   S      30             0.5215000    0.015194859206

      8   S      31          6665.0000000   -0.000293269653
      8   S      32          1000.0000000   -0.002318035474
      8   S      33           228.0000000   -0.011499786039
      8   S      34            64.7100000   -0.046826727010
      8   S      35            21.0600000   -0.128466168750
      8   S      36             7.4950000   -0.301266272463
      8   S      37             2.7970000   -0.255630702330
      8   S      38             0.5215000    1.093793361012

      9   S      39             0.1596000    1.000000000000

     10   P      40             9.4390000    0.056979251590
     10   P      41             2.0020000    0.313207211501
     10   P      42             0.5456000    0.760376741738

     11   P      43             0.1517000    1.000000000000

     12   D      44             0.5500000    1.000000000000

 C         

     19   S      45          6665.0000000    0.000691583963
     19   S      46          1000.0000000    0.005325796153
     19   S      47           228.0000000    0.027060721042
     19   S      48            64.7100000    0.101656846141
     19   S      49            21.0600000    0.274574823617
     19   S      50             7.4950000    0.448294318924
     19   S      51             2.7970000    0.284902610715
     19   S      52             0.5215000    0.015194859206

     20   S      53          6665.0000000   -0.000293269653
     20   S      54          1000.0000000   -0.002318035474
     20   S      55           228.0000000   -0.011499786039
     20   S      56            64.7100000   -0.046826727010
     20   S      57            21.0600000   -0.128466168750
     20   S      58             7.4950000   -0.301266272463
     20   S      59             2.7970000   -0.255630702330
     20   S      60             0.5215000    1.093793361012

     21   S      61             0.1596000    1.000000000000

     22   P      62             9.4390000    0.056979251590
     22   P      63             2.0020000    0.313207211501
     22   P      64             0.5456000    0.760376741738

     23   P      65             0.1517000    1.000000000000

     24   D      66             0.5500000    1.000000000000

 H         

     28   S      67            13.0100000    0.033498726390
     28   S      68             1.9620000    0.234800801174
     28   S      69             0.4446000    0.813682957883

     29   S      70             0.1220000    1.000000000000

     30   P      71             0.7270000    1.000000000000

 H         

     34   S      72            13.0100000    0.033498726390
     34   S      73             1.9620000    0.234800801174
     34   S      74             0.4446000    0.813682957883

     35   S      75             0.1220000    1.000000000000

     36   P      76             0.7270000    1.000000000000

 H         

     40   S      77            13.0100000    0.033498726390
     40   S      78             1.9620000    0.234800801174
     40   S      79             0.4446000    0.813682957883

     41   S      80             0.1220000    1.000000000000

     42   P      81             0.7270000    1.000000000000

 TOTAL NUMBER OF BASIS SET SHELLS             =   42
 NUMBER OF CARTESIAN GAUSSIAN BASIS FUNCTIONS =   90
 NOTE: THIS RUN WILL RESTRICT THE MO VARIATION SPACE TO SPHERICAL HARMONICS.
 THE NUMBER OF ORBITALS KEPT IN THE VARIATIONAL SPACE WILL BE PRINTED LATER.
 NUMBER OF ELECTRONS                          =   30
 CHARGE OF MOLECULE                           =    0
 SPIN MULTIPLICITY                            =    1
 NUMBER OF OCCUPIED ORBITALS (ALPHA)          =   15
 NUMBER OF OCCUPIED ORBITALS (BETA )          =   15
 TOTAL NUMBER OF ATOMS                        =   10
 THE NUCLEAR REPULSION ENERGY IS      105.6221399914

     $CONTRL OPTIONS
     ---------------
 SCFTYP=ROHF         RUNTYP=ENERGY       EXETYP=RUN     
 MPLEVL=       0     CITYP =NONE         CCTYP =CCSD         VBTYP =NONE    
 DFTTYP=NONE         TDDFT =NONE    
 MULT  =       1     ICHARG=       0     NZVAR =       0     COORD =UNIQUE  
 PP    =NONE         RELWFN=NONE         LOCAL =NONE         NUMGRD=       F
 ISPHER=       1     NOSYM =       0     MAXIT =     100     UNITS =ANGS    
 PLTORB=       F     MOLPLT=       F     AIMPAC=       F     FRIEND=        
 NPRINT=       7     IREST =       0     GEOM  =INPUT   
 NORMF =       0     NORMP =       0     ITOL  =      30     ICUT  =      20
 INTTYP=BEST         GRDTYP=BEST         QMTTOL= 1.0E-06

     $SYSTEM OPTIONS
     ---------------
  REPLICATED MEMORY=  2000000000 WORDS (ON EVERY NODE).
 DISTRIBUTED MEMDDI=           0 MILLION WORDS IN AGGREGATE,
 MEMDDI DISTRIBUTED OVER   1 PROCESSORS IS           0 WORDS/PROCESSOR.
 TOTAL MEMORY REQUESTED ON EACH PROCESSOR=  2000000000 WORDS.
 TIMLIM=  9999999999.00 MINUTES, OR 6944444.4 DAYS.
 PARALL= F  BALTYP=  DLB     KDIAG=    0  COREFL= F

          ----------------
          PROPERTIES INPUT
          ----------------

     MOMENTS            FIELD           POTENTIAL          DENSITY
 IEMOM =       1   IEFLD =       0   IEPOT =       0   IEDEN =       0
 WHERE =COMASS     WHERE =NUCLEI     WHERE =NUCLEI     WHERE =NUCLEI  
 OUTPUT=BOTH       OUTPUT=BOTH       OUTPUT=PUNCH      OUTPUT=BOTH    
 IEMINT=       0   IEFINT=       0                     IEDINT=       0
                                                       MORB  =       0
          EXTRAPOLATION IN EFFECT
          RESTRICTION OF ORBITAL MIXING IN EFFECT
          DIIS IN EFFECT
 ORBITAL PRINTING OPTION: NPREO=     1    90     2     1

     -------------------------------
     INTEGRAL TRANSFORMATION OPTIONS
     -------------------------------
     NWORD  =         0     CUTOFF = 1.0E-09
     MPTRAN =         0     DIRTRF =       F
     AOINTS =DUP     

          ----------------------
          INTEGRAL INPUT OPTIONS
          ----------------------
 NOPK  =       1 NORDER=       0 SCHWRZ=       T

     ------------------------------------------
     THE POINT GROUP IS CNV, NAXIS= 2, ORDER= 4
     ------------------------------------------

 -- VARIATIONAL SPACE WILL BE RESTRICTED TO PURE SPHERICAL HARMONICS ONLY --
 AFTER EXCLUDING CONTAMINANT COMBINATIONS FROM THE CARTESIAN GAUSSIAN BASIS
 SET, THE NUMBER OF SPHERICAL HARMONICS KEPT IN THE VARIATION SPACE IS   86

     DIMENSIONS OF THE SYMMETRY SUBSPACES ARE
 A1  =   36     A2  =    9     B1  =   13     B2  =   28

 ..... DONE SETTING UP THE RUN .....
 STEP CPU TIME =     0.02 TOTAL CPU TIME =        0.0 (    0.0 MIN)
 TOTAL WALL CLOCK TIME=        0.0 SECONDS, CPU UTILIZATION IS  66.67%

          ********************
          1 ELECTRON INTEGRALS
          ********************
 ...... END OF ONE-ELECTRON INTEGRALS ......
 STEP CPU TIME =     0.02 TOTAL CPU TIME =        0.0 (    0.0 MIN)
 TOTAL WALL CLOCK TIME=        0.0 SECONDS, CPU UTILIZATION IS 100.00%

          -------------
          GUESS OPTIONS
          -------------
          GUESS =MOREAD            NORB  =      86          NORDER=       0
          MIX   =       F          PRTMO =       F          PUNMO =       F
          TOLZ  = 1.0E-08          TOLE  = 1.0E-05
          SYMDEN=       F          PURIFY=       F

 INITIAL GUESS ORBITALS GENERATED BY MOREAD   ROUTINE.

 STATISTICS FOR GENERATION OF SYMMETRY ORBITAL -Q- MATRIX
 NUMBER OF CARTESIAN ATOMIC ORBITALS=         90
 NUMBER OF SPHERICAL CONTAMINANTS DROPPED=     4
 NUMBER OF LINEARLY DEPENDENT MOS DROPPED=     0
 TOTAL NUMBER OF MOS IN VARIATION SPACE=      86

 SYMMETRIES FOR INITIAL GUESS ORBITALS FOLLOW.  ALPHA SET(S).
    15 ORBITALS ARE OCCUPIED (    4 CORE ORBITALS).
     5=A1       6=A1       7=B2       8=A1       9=B2      10=A1      11=B2  
    12=A1      13=B2      14=B1      15=A2      16=B1      17=A1      18=B2  
    19=A1      20=B1      21=B2      22=A1      23=B2      24=A1      25=A1  

 SYMMETRIES FOR INITIAL GUESS ORBITALS FOLLOW.   BETA SET(S).
    15 ORBITALS ARE OCCUPIED (    4 CORE ORBITALS).
     5=A1       6=A1       7=B2       8=A1       9=B2      10=A1      11=B2  
    12=A1      13=B2      14=B1      15=A2      16=B1      17=A1      18=B2  
    19=A1      20=B1      21=B2      22=A1      23=B2      24=A1      25=A1  
 ...... END OF INITIAL ORBITAL SELECTION ......
 STEP CPU TIME =     0.01 TOTAL CPU TIME =        0.0 (    0.0 MIN)
 TOTAL WALL CLOCK TIME=        0.1 SECONDS, CPU UTILIZATION IS  83.33%

                    ----------------------
                    AO INTEGRAL TECHNOLOGY
                    ----------------------
     S,P,L SHELL ROTATED AXIS INTEGRALS, REPROGRAMMED BY
        KAZUYA ISHIMURA (IMS) AND JOSE SIERRA (SYNSTAR).
     S,P,D,L SHELL ROTATED AXIS INTEGRALS PROGRAMMED BY
        KAZUYA ISHIMURA (INSTITUTE FOR MOLECULAR SCIENCE).
     S,P,D,F,G SHELL TO TOTAL QUARTET ANGULAR MOMENTUM SUM 5,
        ERIC PROGRAM BY GRAHAM FLETCHER (ELORET AND NASA ADVANCED
        SUPERCOMPUTING DIVISION, AMES RESEARCH CENTER).
     S,P,D,F,G,L SHELL GENERAL RYS QUADRATURE PROGRAMMED BY
        MICHEL DUPUIS (PACIFIC NORTHWEST NATIONAL LABORATORY).

          --------------------
          2 ELECTRON INTEGRALS
          --------------------

 THE -PK- OPTION IS OFF, THE INTEGRALS ARE NOT IN SUPERMATRIX FORM.
 STORING   15000 INTEGRALS/RECORD ON DISK, USING 12 BYTES/INTEGRAL.
 TWO ELECTRON INTEGRAL EVALUATION REQUIRES   91299 WORDS OF MEMORY.
 SCHWARZ INEQUALITY OVERHEAD:      4095 INTEGRALS, T=        0.01
 II,JST,KST,LST =  1  1  1  1 NREC =         1 INTLOC =    1
 II,JST,KST,LST =  2  1  1  1 NREC =         1 INTLOC =    2
 II,JST,KST,LST =  3  1  1  1 NREC =         1 INTLOC =    7
 II,JST,KST,LST =  4  1  1  1 NREC =         1 INTLOC =   22
 II,JST,KST,LST =  5  1  1  1 NREC =         1 INTLOC =   67
 II,JST,KST,LST =  6  1  1  1 NREC =         1 INTLOC =  214
 II,JST,KST,LST =  7  1  1  1 NREC =         1 INTLOC = 1189
 II,JST,KST,LST =  8  1  1  1 NREC =         1 INTLOC = 1867
 II,JST,KST,LST =  9  1  1  1 NREC =         1 INTLOC = 2713
 II,JST,KST,LST = 10  1  1  1 NREC =         1 INTLOC = 3757
 II,JST,KST,LST = 11  1  1  1 NREC =         1 INTLOC = 7134
 II,JST,KST,LST = 12  1  1  1 NREC =         1 INTLOC =12131
 II,JST,KST,LST = 13  1  1  1 NREC =         2 INTLOC =13748
 II,JST,KST,LST = 14  1  1  1 NREC =         2 INTLOC =13748
 II,JST,KST,LST = 15  1  1  1 NREC =         2 INTLOC =13748
 II,JST,KST,LST = 16  1  1  1 NREC =         2 INTLOC =13748
 II,JST,KST,LST = 17  1  1  1 NREC =         2 INTLOC =13748
 II,JST,KST,LST = 18  1  1  1 NREC =         2 INTLOC =13748
 II,JST,KST,LST = 19  1  1  1 NREC =         2 INTLOC =13748
 II,JST,KST,LST = 20  1  1  1 NREC =         3 INTLOC = 7686
 II,JST,KST,LST = 21  1  1  1 NREC =         4 INTLOC = 3906
 II,JST,KST,LST = 22  1  1  1 NREC =         5 INTLOC = 3222
 II,JST,KST,LST = 23  1  1  1 NREC =         8 INTLOC =14941
 II,JST,KST,LST = 24  1  1  1 NREC =        15 INTLOC = 5502
 II,JST,KST,LST = 25  1  1  1 NREC =        37 INTLOC = 3511
 II,JST,KST,LST = 26  1  1  1 NREC =        37 INTLOC = 3511
 II,JST,KST,LST = 27  1  1  1 NREC =        37 INTLOC = 3511
 II,JST,KST,LST = 28  1  1  1 NREC =        37 INTLOC = 3511
 II,JST,KST,LST = 29  1  1  1 NREC =        42 INTLOC = 9651
 II,JST,KST,LST = 30  1  1  1 NREC =        49 INTLOC = 3266
 II,JST,KST,LST = 31  1  1  1 NREC =        69 INTLOC = 9781
 II,JST,KST,LST = 32  1  1  1 NREC =        69 INTLOC = 9781
 II,JST,KST,LST = 33  1  1  1 NREC =        69 INTLOC = 9781
 II,JST,KST,LST = 34  1  1  1 NREC =        69 INTLOC = 9781
 II,JST,KST,LST = 35  1  1  1 NREC =        78 INTLOC = 2196
 II,JST,KST,LST = 36  1  1  1 NREC =        88 INTLOC = 2011
 II,JST,KST,LST = 37  1  1  1 NREC =       118 INTLOC =13015
 II,JST,KST,LST = 38  1  1  1 NREC =       118 INTLOC =13015
 II,JST,KST,LST = 39  1  1  1 NREC =       118 INTLOC =13015
 II,JST,KST,LST = 40  1  1  1 NREC =       118 INTLOC =13015
 II,JST,KST,LST = 41  1  1  1 NREC =       131 INTLOC = 6672
 II,JST,KST,LST = 42  1  1  1 NREC =       146 INTLOC = 2762
 SCHWARZ INEQUALITY TEST SKIPPED           0 INTEGRAL BLOCKS.
 TOTAL NUMBER OF NONZERO TWO-ELECTRON INTEGRALS =             2829949
        189 INTEGRAL RECORDS WERE STORED ON DISK FILE  8.
  ...... END OF TWO-ELECTRON INTEGRALS .....
 STEP CPU TIME =     1.04 TOTAL CPU TIME =        1.1 (    0.0 MIN)
 TOTAL WALL CLOCK TIME=        1.1 SECONDS, CPU UTILIZATION IS  99.09%

          ---------------------------
                 ROHF SCF CALCULATION
          ---------------------------

     NUCLEAR ENERGY =       105.6221399914
     MAXIT =100     NPUNCH=  2     MULT=  1
     EXTRAP=T  DAMP=F  SHIFT=F  RSTRCT=T  DIIS=T  SOSCF=F
     DENSITY MATRIX CONV=  1.00E-03
     ROHF CANONICALIZATION PARAMETERS
             C-C     O-O     V-V
     ALPHA -0.5000  0.5000  1.5000
     BETA   1.5000  0.5000 -0.5000
     MEMORY REQUIRED FOR UHF/ROHF ITERS=    109640 WORDS.

 ITER EX      TOTAL ENERGY        E CHANGE  DENSITY CHANGE    DIIS ERROR
          * * *   INITIATING DIIS PROCEDURE   * * *
   1  0     -154.7517626265  -154.7517626265   0.000005639   0.000002828
   2  1     -154.7517626266    -0.0000000001   0.000003714   0.000002607

 ROHF HAS CONVERGED, NOW COMPUTING EXACT ALPHA,BETA FOCK MATRICES
 FOR USE DURING THE COUPLED CLUSTER CALCULATION THAT FOLLOWS.

          -----------------
          DENSITY CONVERGED
          -----------------

 FINAL ROHF ENERGY IS     -154.7517626266 AFTER   2 ITERATIONS

          --------------------
          SPIN SZ   =    0.000
          S-SQUARED =    0.000
          --------------------

          ------------
          EIGENVECTORS
          ------------

                      1          2          3          4          5
                  -11.3467   -11.2566   -11.2031   -11.2030    -1.1231
                     A1         A1         B2         A1         A1  
    1  C  1  S    1.001924  -0.009232   0.000000  -0.000080  -0.013751
    2  C  1  S    0.003905  -0.000642   0.000000  -0.000162   0.290186
    3  C  1  S   -0.007896   0.002857   0.000000   0.001520   0.124945
    4  C  1  X    0.000000   0.000000   0.000000   0.000000   0.000000
    5  C  1  Y    0.000000   0.000000   0.000048   0.000000   0.000000
    6  C  1  Z   -0.000363  -0.000250   0.000000   0.000044   0.112794
    7  C  1  X    0.000000   0.000000   0.000000   0.000000   0.000000
    8  C  1  Y    0.000000   0.000000  -0.000222   0.000000   0.000000
    9  C  1  Z   -0.000650   0.001337   0.000000   0.000775  -0.003439
   10  C  1 XX   -0.000946   0.000424   0.000000  -0.000225  -0.006359
   11  C  1 YY    0.000469  -0.000065   0.000000   0.000103  -0.011058
   12  C  1 ZZ    0.000477  -0.000359   0.000000   0.000122   0.017417
   13  C  1 XY    0.000000   0.000000   0.000000   0.000000   0.000000
   14  C  1 XZ    0.000000   0.000000   0.000000   0.000000   0.000000
   15  C  1 YZ    0.000000   0.000000   0.000031   0.000000   0.000000
   16  C  2  S    0.008363   1.002008   0.000000  -0.011519  -0.022984
   17  C  2  S   -0.000232   0.004366   0.000000  -0.000116   0.292139
   18  C  2  S    0.000959  -0.009871   0.000000   0.000027   0.233455
   19  C  2  X    0.000000   0.000000   0.000000   0.000000   0.000000
   20  C  2  Y    0.000000   0.000000   0.000129   0.000000   0.000000
   21  C  2  Z    0.000090  -0.000819   0.000000  -0.000039  -0.082643
   22  C  2  X    0.000000   0.000000   0.000000   0.000000   0.000000
   23  C  2  Y    0.000000   0.000000  -0.001235   0.000000   0.000000
   24  C  2  Z   -0.001555   0.001032   0.000000   0.000854  -0.039211
   25  C  2 XX    0.000334  -0.000582   0.000000   0.000578  -0.019382
   26  C  2 YY   -0.000326  -0.000025   0.000000  -0.000394  -0.000128
   27  C  2 ZZ   -0.000008   0.000607   0.000000  -0.000184   0.019510
   28  C  2 XY    0.000000   0.000000   0.000000   0.000000   0.000000
   29  C  2 XZ    0.000000   0.000000   0.000000   0.000000   0.000000
   30  C  2 YZ    0.000000   0.000000   0.000276   0.000000   0.000000
   31  C  3  S   -0.000004   0.007838   0.708548   0.708408  -0.008413
   32  C  3  S   -0.000079  -0.000179   0.002894   0.002735   0.115286
   33  C  3  S    0.000844   0.001546  -0.005559  -0.004453   0.058048
   34  C  3  X    0.000000   0.000000   0.000000   0.000000   0.000000
   35  C  3  Y    0.000079   0.000007   0.000017   0.000002   0.052617
   36  C  3  Z   -0.000014   0.000005   0.000016  -0.000030  -0.039400
   37  C  3  X    0.000000   0.000000   0.000000   0.000000   0.000000
   38  C  3  Y    0.000364   0.000605  -0.000600   0.000004   0.008992
   39  C  3  Z   -0.000261  -0.000731   0.000216   0.000113  -0.001738
   40  C  3 XX   -0.000114   0.000286  -0.000283  -0.000500  -0.004697
   41  C  3 YY   -0.000012  -0.000269   0.000116   0.000222   0.005281
   42  C  3 ZZ    0.000127  -0.000017   0.000167   0.000278  -0.000585
   43  C  3 XY    0.000000   0.000000   0.000000   0.000000   0.000000
   44  C  3 XZ    0.000000   0.000000   0.000000   0.000000   0.000000
   45  C  3 YZ   -0.000126   0.000065   0.000050   0.000045  -0.011396
   46  C  4  S   -0.000004   0.007838  -0.708548   0.708408  -0.008413
   47  C  4  S   -0.000079  -0.000179  -0.002894   0.002735   0.115286
   48  C  4  S    0.000844   0.001546   0.005559  -0.004453   0.058048
   49  C  4  X    0.000000   0.000000   0.000000   0.000000   0.000000
   50  C  4  Y   -0.000079  -0.000007   0.000017  -0.000002  -0.052617
   51  C  4  Z   -0.000014   0.000005  -0.000016  -0.000030  -0.039400
   52  C  4  X    0.000000   0.000000   0.000000   0.000000   0.000000
   53  C  4  Y   -0.000364  -0.000605  -0.000600  -0.000004  -0.008992
   54  C  4  Z   -0.000261  -0.000731  -0.000216   0.000113  -0.001738
   55  C  4 XX   -0.000114   0.000286   0.000283  -0.000500  -0.004697
   56  C  4 YY   -0.000012  -0.000269  -0.000116   0.000222   0.005281
   57  C  4 ZZ    0.000127  -0.000017  -0.000167   0.000278  -0.000585
   58  C  4 XY    0.000000   0.000000   0.000000   0.000000   0.000000
   59  C  4 XZ    0.000000   0.000000   0.000000   0.000000   0.000000
   60  C  4 YZ    0.000126  -0.000065   0.000050  -0.000045   0.011396
   61  H  5  S   -0.000396   0.000061   0.000086  -0.000153   0.104583
   62  H  5  S    0.001214   0.000196   0.000148   0.000041   0.000343
   63  H  5  X    0.000000   0.000000   0.000000   0.000000   0.000000
   64  H  5  Y    0.000501  -0.000139  -0.000005   0.000029  -0.014274
   65  H  5  Z   -0.000233   0.000094   0.000013  -0.000059   0.011389
   66  H  6  S   -0.000396   0.000061  -0.000086  -0.000153   0.104583
   67  H  6  S    0.001214   0.000196  -0.000148   0.000041   0.000343
   68  H  6  X    0.000000   0.000000   0.000000   0.000000   0.000000
   69  H  6  Y   -0.000501   0.000139  -0.000005  -0.000029   0.014274
   70  H  6  Z   -0.000233   0.000094  -0.000013  -0.000059   0.011389
   71  H  7  S   -0.000087   0.000003   0.000144  -0.000343   0.032746
   72  H  7  S    0.000094   0.000249  -0.000945   0.000801  -0.000142
   73  H  7  X    0.000000   0.000000   0.000000   0.000000   0.000000
   74  H  7  Y   -0.000029   0.000008   0.000044   0.000002  -0.002222
   75  H  7  Z    0.000044  -0.000066  -0.000305   0.000361  -0.005859
   76  H  8  S   -0.000087   0.000003  -0.000144  -0.000343   0.032746
   77  H  8  S    0.000094   0.000249   0.000945   0.000801  -0.000142
   78  H  8  X    0.000000   0.000000   0.000000   0.000000   0.000000
   79  H  8  Y    0.000029  -0.000008   0.000044  -0.000002   0.002222
   80  H  8  Z    0.000044  -0.000066   0.000305   0.000361  -0.005859
   81  H  9  S   -0.000034  -0.000005   0.000212  -0.000276   0.040387
   82  H  9  S   -0.000058   0.000010  -0.000783   0.000941   0.003329
   83  H  9  X    0.000000   0.000000   0.000000   0.000000   0.000000
   84  H  9  Y    0.000011  -0.000083  -0.000260   0.000309  -0.006769
   85  H  9  Z    0.000042   0.000087   0.000173  -0.000180   0.001950
   86  H 10  S   -0.000034  -0.000005  -0.000212  -0.000276   0.040387
   87  H 10  S   -0.000058   0.000010   0.000783   0.000941   0.003329
   88  H 10  X    0.000000   0.000000   0.000000   0.000000   0.000000
   89  H 10  Y   -0.000011   0.000083  -0.000260  -0.000309   0.006769
   90  H 10  Z    0.000042   0.000087  -0.000173  -0.000180   0.001950

                      6          7          8          9         10
                   -0.9349    -0.8846    -0.7505    -0.6778    -0.6239
                     A1         B2         A1         B2         A1  
    1  C  1  S   -0.010391   0.000000   0.005767   0.000000  -0.002608
    2  C  1  S    0.271373   0.000000  -0.065112   0.000000  -0.022044
    3  C  1  S    0.155699   0.000000  -0.070580   0.000000   0.004095
    4  C  1  X    0.000000   0.000000   0.000000   0.000000   0.000000
    5  C  1  Y    0.000000  -0.086025   0.000000   0.406226   0.000000
    6  C  1  Z   -0.057804   0.000000   0.356158   0.000000  -0.214093
    7  C  1  X    0.000000   0.000000   0.000000   0.000000   0.000000
    8  C  1  Y    0.000000   0.010233   0.000000   0.135022   0.000000
    9  C  1  Z   -0.043404   0.000000   0.125819   0.000000  -0.095539
   10  C  1 XX   -0.004396   0.000000  -0.000783   0.000000   0.000958
   11  C  1 YY    0.004335   0.000000  -0.019533   0.000000   0.007903
   12  C  1 ZZ    0.000061   0.000000   0.020316   0.000000  -0.008860
   13  C  1 XY    0.000000   0.000000   0.000000   0.000000   0.000000
   14  C  1 XZ    0.000000   0.000000   0.000000   0.000000   0.000000
   15  C  1 YZ    0.000000  -0.007616   0.000000  -0.020292   0.000000
   16  C  2  S    0.005924   0.000000  -0.004883   0.000000   0.000597
   17  C  2  S   -0.118000   0.000000   0.200865   0.000000   0.101331
   18  C  2  S   -0.097371   0.000000   0.125791   0.000000   0.143127
   19  C  2  X    0.000000   0.000000   0.000000   0.000000   0.000000
   20  C  2  Y    0.000000  -0.220625   0.000000   0.121015   0.000000
   21  C  2  Z   -0.193941   0.000000  -0.153826   0.000000   0.283682
   22  C  2  X    0.000000   0.000000   0.000000   0.000000   0.000000
   23  C  2  Y    0.000000  -0.149454   0.000000   0.070839   0.000000
   24  C  2  Z   -0.103127   0.000000  -0.031069   0.000000   0.104769
   25  C  2 XX    0.007186   0.000000  -0.000534   0.000000  -0.001353
   26  C  2 YY   -0.024599   0.000000  -0.009605   0.000000   0.003413
   27  C  2 ZZ    0.017413   0.000000   0.010140   0.000000  -0.002060
   28  C  2 XY    0.000000   0.000000   0.000000   0.000000   0.000000
   29  C  2 XZ    0.000000   0.000000   0.000000   0.000000   0.000000
   30  C  2 YZ    0.000000  -0.021628   0.000000  -0.023371   0.000000
   31  C  3  S    0.012202  -0.018122   0.009206  -0.006148   0.005550
   32  C  3  S   -0.192053   0.262123  -0.120979   0.064923  -0.042349
   33  C  3  S   -0.108299   0.150009  -0.107585   0.090970  -0.062287
   34  C  3  X    0.000000   0.000000   0.000000   0.000000   0.000000
   35  C  3  Y   -0.050182  -0.002323   0.079859  -0.057854   0.259578
   36  C  3  Z   -0.000331  -0.025951  -0.084003   0.099543   0.038972
   37  C  3  X    0.000000   0.000000   0.000000   0.000000   0.000000
   38  C  3  Y    0.008477  -0.009227   0.019708  -0.013026   0.081399
   39  C  3  Z    0.010532   0.015586  -0.019934   0.023538   0.013508
   40  C  3 XX    0.005024  -0.004052  -0.000339   0.001506  -0.002379
   41  C  3 YY   -0.009451   0.000767   0.001308  -0.004900   0.008725
   42  C  3 ZZ    0.004427   0.003285  -0.000969   0.003393  -0.006346
   43  C  3 XY    0.000000   0.000000   0.000000   0.000000   0.000000
   44  C  3 XZ    0.000000   0.000000   0.000000   0.000000   0.000000
   45  C  3 YZ    0.003102  -0.003889  -0.012087   0.005421  -0.011701
   46  C  4  S    0.012202   0.018122   0.009206   0.006148   0.005550
   47  C  4  S   -0.192053  -0.262123  -0.120979  -0.064923  -0.042349
   48  C  4  S   -0.108299  -0.150009  -0.107585  -0.090970  -0.062287
   49  C  4  X    0.000000   0.000000   0.000000   0.000000   0.000000
   50  C  4  Y    0.050182  -0.002323  -0.079859  -0.057854  -0.259578
   51  C  4  Z   -0.000331   0.025951  -0.084003  -0.099543   0.038972
   52  C  4  X    0.000000   0.000000   0.000000   0.000000   0.000000
   53  C  4  Y   -0.008477  -0.009227  -0.019708  -0.013026  -0.081399
   54  C  4  Z    0.010532  -0.015586  -0.019934  -0.023538   0.013508
   55  C  4 XX    0.005024   0.004052  -0.000339  -0.001506  -0.002379
   56  C  4 YY   -0.009451  -0.000767   0.001308   0.004900   0.008725
   57  C  4 ZZ    0.004427  -0.003285  -0.000969  -0.003393  -0.006346
   58  C  4 XY    0.000000   0.000000   0.000000   0.000000   0.000000
   59  C  4 XZ    0.000000   0.000000   0.000000   0.000000   0.000000
   60  C  4 YZ   -0.003102  -0.003889   0.012087   0.005421   0.011701
   61  H  5  S    0.161386  -0.049523  -0.182604   0.278547   0.077046
   62  H  5  S    0.012095  -0.017193  -0.040618   0.079739   0.016027
   63  H  5  X    0.000000   0.000000   0.000000   0.000000   0.000000
   64  H  5  Y   -0.019126   0.003782   0.017583  -0.013239  -0.006879
   65  H  5  Z    0.009654  -0.002254  -0.001697   0.013691  -0.002213
   66  H  6  S    0.161386   0.049523  -0.182604  -0.278547   0.077046
   67  H  6  S    0.012095   0.017193  -0.040618  -0.079739   0.016027
   68  H  6  X    0.000000   0.000000   0.000000   0.000000   0.000000
   69  H  6  Y    0.019126   0.003782  -0.017583  -0.013239   0.006879
   70  H  6  Z    0.009654   0.002254  -0.001697  -0.013691  -0.002213
   71  H  7  S   -0.102354  -0.124443  -0.135473  -0.116933  -0.002449
   72  H  7  S   -0.016375  -0.010705  -0.033004  -0.033124  -0.002631
   73  H  7  X    0.000000   0.000000   0.000000   0.000000   0.000000
   74  H  7  Y    0.000796   0.000147  -0.002505  -0.001467  -0.006148
   75  H  7  Z    0.013967   0.017354   0.014379   0.010111   0.001697
   76  H  8  S   -0.102354   0.124443  -0.135473   0.116933  -0.002449
   77  H  8  S   -0.016375   0.010705  -0.033004   0.033124  -0.002631
   78  H  8  X    0.000000   0.000000   0.000000   0.000000   0.000000
   79  H  8  Y   -0.000796   0.000147   0.002505  -0.001467   0.006148
   80  H  8  Z    0.013967  -0.017354   0.014379  -0.010111   0.001697
   81  H  9  S   -0.070832  -0.153325  -0.098166  -0.042635  -0.231030
   82  H  9  S   -0.000142  -0.026254  -0.029047  -0.011422  -0.078308
   83  H  9  X    0.000000   0.000000   0.000000   0.000000   0.000000
   84  H  9  Y    0.009887   0.017215   0.008206   0.003535   0.014271
   85  H  9  Z   -0.003795  -0.009117  -0.006526  -0.005859  -0.010449
   86  H 10  S   -0.070832   0.153325  -0.098166   0.042635  -0.231030
   87  H 10  S   -0.000142   0.026254  -0.029047   0.011422  -0.078308
   88  H 10  X    0.000000   0.000000   0.000000   0.000000   0.000000
   89  H 10  Y   -0.009887   0.017215  -0.008206   0.003535  -0.014271
   90  H 10  Z   -0.003795   0.009117  -0.006526   0.005859  -0.010449

                     11         12         13         14         15
                   -0.5411    -0.5319    -0.4983    -0.4465    -0.1926
                     B2         A1         B2         B1         A2  
    1  C  1  S    0.000000   0.000254   0.000000   0.000000   0.000000
    2  C  1  S    0.000000   0.077254   0.000000   0.000000   0.000000
    3  C  1  S    0.000000   0.159357   0.000000   0.000000   0.000000
    4  C  1  X    0.000000   0.000000   0.000000   0.280694   0.000000
    5  C  1  Y   -0.185815   0.000000  -0.057432   0.000000   0.000000
    6  C  1  Z    0.000000   0.211788   0.000000   0.000000   0.000000
    7  C  1  X    0.000000   0.000000   0.000000   0.204874   0.000000
    8  C  1  Y   -0.081778   0.000000  -0.032198   0.000000   0.000000
    9  C  1  Z    0.000000   0.121618   0.000000   0.000000   0.000000
   10  C  1 XX    0.000000   0.001947   0.000000   0.000000   0.000000
   11  C  1 YY    0.000000  -0.009657   0.000000   0.000000   0.000000
   12  C  1 ZZ    0.000000   0.007710   0.000000   0.000000   0.000000
   13  C  1 XY    0.000000   0.000000   0.000000   0.000000  -0.012128
   14  C  1 XZ    0.000000   0.000000   0.000000   0.031491   0.000000
   15  C  1 YZ    0.025923   0.000000   0.028979   0.000000   0.000000
   16  C  2  S    0.000000   0.000074   0.000000   0.000000   0.000000
   17  C  2  S    0.000000  -0.043244   0.000000   0.000000   0.000000
   18  C  2  S    0.000000  -0.086865   0.000000   0.000000   0.000000
   19  C  2  X    0.000000   0.000000   0.000000   0.375039   0.000000
   20  C  2  Y    0.212906   0.000000   0.316962   0.000000   0.000000
   21  C  2  Z    0.000000  -0.227825   0.000000   0.000000   0.000000
   22  C  2  X    0.000000   0.000000   0.000000   0.234838   0.000000
   23  C  2  Y    0.115147   0.000000   0.118223   0.000000   0.000000
   24  C  2  Z    0.000000   0.015617   0.000000   0.000000   0.000000
   25  C  2 XX    0.000000   0.000688   0.000000   0.000000   0.000000
   26  C  2 YY    0.000000  -0.035763   0.000000   0.000000   0.000000
   27  C  2 ZZ    0.000000   0.035074   0.000000   0.000000   0.000000
   28  C  2 XY    0.000000   0.000000   0.000000   0.000000  -0.051670
   29  C  2 XZ    0.000000   0.000000   0.000000  -0.016275   0.000000
   30  C  2 YZ    0.008534   0.000000   0.032269   0.000000   0.000000
   31  C  3  S   -0.001443   0.000908  -0.000219   0.000000   0.000000
   32  C  3  S   -0.003083  -0.011977  -0.039893   0.000000   0.000000
   33  C  3  S    0.019109  -0.047654  -0.062000   0.000000   0.000000
   34  C  3  X    0.000000   0.000000   0.000000   0.179026   0.378171
   35  C  3  Y   -0.023552   0.003901  -0.309735   0.000000   0.000000
   36  C  3  Z    0.286177   0.278596  -0.036140   0.000000   0.000000
   37  C  3  X    0.000000   0.000000   0.000000   0.117758   0.443041
   38  C  3  Y   -0.013000  -0.020090  -0.133890   0.000000   0.000000
   39  C  3  Z    0.107923   0.109986  -0.011130   0.000000   0.000000
   40  C  3 XX    0.001652   0.001020   0.001441   0.000000   0.000000
   41  C  3 YY   -0.009776  -0.022768   0.006838   0.000000   0.000000
   42  C  3 ZZ    0.008124   0.021748  -0.008279   0.000000   0.000000
   43  C  3 XY    0.000000   0.000000   0.000000   0.015477   0.004755
   44  C  3 XZ    0.000000   0.000000   0.000000  -0.013977  -0.006967
   45  C  3 YZ    0.006501  -0.003878   0.022283   0.000000   0.000000
   46  C  4  S    0.001443   0.000908   0.000219   0.000000   0.000000
   47  C  4  S    0.003083  -0.011977   0.039893   0.000000   0.000000
   48  C  4  S   -0.019109  -0.047654   0.062000   0.000000   0.000000
   49  C  4  X    0.000000   0.000000   0.000000   0.179026  -0.378171
   50  C  4  Y   -0.023552  -0.003901  -0.309735   0.000000   0.000000
   51  C  4  Z   -0.286177   0.278596   0.036140   0.000000   0.000000
   52  C  4  X    0.000000   0.000000   0.000000   0.117758  -0.443041
   53  C  4  Y   -0.013000   0.020090  -0.133890   0.000000   0.000000
   54  C  4  Z   -0.107923   0.109986   0.011130   0.000000   0.000000
   55  C  4 XX   -0.001652   0.001020  -0.001441   0.000000   0.000000
   56  C  4 YY    0.009776  -0.022768  -0.006838   0.000000   0.000000
   57  C  4 ZZ   -0.008124   0.021748   0.008279   0.000000   0.000000
   58  C  4 XY    0.000000   0.000000   0.000000  -0.015477   0.004755
   59  C  4 XZ    0.000000   0.000000   0.000000  -0.013977   0.006967
   60  C  4 YZ    0.006501   0.003878   0.022283   0.000000   0.000000
   61  H  5  S   -0.157519  -0.054479  -0.067688   0.000000   0.000000
   62  H  5  S   -0.067465  -0.027221  -0.047106   0.000000   0.000000
   63  H  5  X    0.000000   0.000000   0.000000   0.009158  -0.002123
   64  H  5  Y    0.005970   0.003072  -0.001293   0.000000   0.000000
   65  H  5  Z   -0.006760   0.003193  -0.003221   0.000000   0.000000
   66  H  6  S    0.157519  -0.054479   0.067688   0.000000   0.000000
   67  H  6  S    0.067465  -0.027221   0.047106   0.000000   0.000000
   68  H  6  X    0.000000   0.000000   0.000000   0.009158   0.002123
   69  H  6  Y    0.005970  -0.003072  -0.001293   0.000000   0.000000
   70  H  6  Z    0.006760   0.003193   0.003221   0.000000   0.000000
   71  H  7  S   -0.248747   0.249496   0.061296   0.000000   0.000000
   72  H  7  S   -0.094807   0.112045   0.029451   0.000000   0.000000
   73  H  7  X    0.000000   0.000000   0.000000   0.006730  -0.014789
   74  H  7  Y   -0.000473  -0.003606  -0.009244   0.000000   0.000000
   75  H  7  Z    0.016615  -0.013134  -0.003020   0.000000   0.000000
   76  H  8  S    0.248747   0.249496  -0.061296   0.000000   0.000000
   77  H  8  S    0.094807   0.112045  -0.029451   0.000000   0.000000
   78  H  8  X    0.000000   0.000000   0.000000   0.006730   0.014789
   79  H  8  Y   -0.000473   0.003606  -0.009244   0.000000   0.000000
   80  H  8  Z   -0.016615  -0.013134   0.003020   0.000000   0.000000
   81  H  9  S    0.102958  -0.136324  -0.252126   0.000000   0.000000
   82  H  9  S    0.045948  -0.071654  -0.125421   0.000000   0.000000
   83  H  9  X    0.000000   0.000000   0.000000   0.007458  -0.015891
   84  H  9  Y   -0.009268   0.009476   0.011494   0.000000   0.000000
   85  H  9  Z   -0.002982   0.004973  -0.006704   0.000000   0.000000
   86  H 10  S   -0.102958  -0.136324   0.252126   0.000000   0.000000
   87  H 10  S   -0.045948  -0.071654   0.125421   0.000000   0.000000
   88  H 10  X    0.000000   0.000000   0.000000   0.007458   0.015891
   89  H 10  Y   -0.009268  -0.009476   0.011494   0.000000   0.000000
   90  H 10  Z    0.002982   0.004973   0.006704   0.000000   0.000000

                     16         17         18         19         20
                   -0.0160     0.1753     0.2086     0.2383     0.2448
                     B1         A1         B2         A1         B1  
    1  C  1  S    0.000000  -0.051464   0.000000  -0.030563   0.000000
    2  C  1  S    0.000000   0.097934   0.000000   0.003416   0.000000
    3  C  1  S    0.000000   1.807367   0.000000   1.245318   0.000000
    4  C  1  X    0.393425   0.000000   0.000000   0.000000  -0.149552
    5  C  1  Y    0.000000   0.000000  -0.282527   0.000000   0.000000
    6  C  1  Z    0.000000  -0.171342   0.000000  -0.102720   0.000000
    7  C  1  X    0.489845   0.000000   0.000000   0.000000  -0.688965
    8  C  1  Y    0.000000   0.000000  -1.525421   0.000000   0.000000
    9  C  1  Z    0.000000  -0.534261   0.000000  -0.002012   0.000000
   10  C  1 XX    0.000000  -0.019868   0.000000  -0.012041   0.000000
   11  C  1 YY    0.000000   0.011922   0.000000   0.012022   0.000000
   12  C  1 ZZ    0.000000   0.007946   0.000000   0.000019   0.000000
   13  C  1 XY    0.000000   0.000000   0.000000   0.000000   0.000000
   14  C  1 XZ   -0.003528   0.000000   0.000000   0.000000   0.049751
   15  C  1 YZ    0.000000   0.000000   0.001281   0.000000   0.000000
   16  C  2  S    0.000000  -0.001444   0.000000   0.006995   0.000000
   17  C  2  S    0.000000  -0.013688   0.000000   0.012021   0.000000
   18  C  2  S    0.000000   0.096541   0.000000  -0.404164   0.000000
   19  C  2  X   -0.029461   0.000000   0.000000   0.000000   0.453913
   20  C  2  Y    0.000000   0.000000  -0.031292   0.000000   0.000000
   21  C  2  Z    0.000000   0.032154   0.000000   0.055836   0.000000
   22  C  2  X   -0.048493   0.000000   0.000000   0.000000   1.039916
   23  C  2  Y    0.000000   0.000000   0.707201   0.000000   0.000000
   24  C  2  Z    0.000000   0.188106   0.000000   0.582375   0.000000
   25  C  2 XX    0.000000   0.004226   0.000000   0.005860   0.000000
   26  C  2 YY    0.000000   0.000111   0.000000   0.007165   0.000000
   27  C  2 ZZ    0.000000  -0.004337   0.000000  -0.013025   0.000000
   28  C  2 XY    0.000000   0.000000   0.000000   0.000000   0.000000
   29  C  2 XZ   -0.038263   0.000000   0.000000   0.000000  -0.012510
   30  C  2 YZ    0.000000   0.000000   0.028164   0.000000   0.000000
   31  C  3  S    0.000000  -0.021921  -0.015947   0.043189   0.000000
   32  C  3  S    0.000000   0.035192  -0.026822  -0.047859   0.000000
   33  C  3  S    0.000000   0.486049   0.623809  -1.282483   0.000000
   34  C  3  X   -0.248161   0.000000   0.000000   0.000000  -0.165366
   35  C  3  Y    0.000000  -0.048384  -0.107599   0.046324   0.000000
   36  C  3  Z    0.000000  -0.009619  -0.013434  -0.125255   0.000000
   37  C  3  X   -0.292441   0.000000   0.000000   0.000000  -0.553831
   38  C  3  Y    0.000000  -0.244888  -0.235121   0.042140   0.000000
   39  C  3  Z    0.000000  -0.078993  -0.310472  -0.688840   0.000000
   40  C  3 XX    0.000000  -0.009943  -0.011925   0.016512   0.000000
   41  C  3 YY    0.000000   0.010073   0.006187   0.004023   0.000000
   42  C  3 ZZ    0.000000  -0.000130   0.005738  -0.020535   0.000000
   43  C  3 XY   -0.002426   0.000000   0.000000   0.000000   0.026534
   44  C  3 XZ   -0.001376   0.000000   0.000000   0.000000  -0.012729
   45  C  3 YZ    0.000000   0.001818  -0.001010  -0.002730   0.000000
   46  C  4  S    0.000000  -0.021921   0.015947   0.043189   0.000000
   47  C  4  S    0.000000   0.035192   0.026822  -0.047859   0.000000
   48  C  4  S    0.000000   0.486049  -0.623809  -1.282483   0.000000
   49  C  4  X   -0.248161   0.000000   0.000000   0.000000  -0.165366
   50  C  4  Y    0.000000   0.048384  -0.107599  -0.046324   0.000000
   51  C  4  Z    0.000000  -0.009619   0.013434  -0.125255   0.000000
   52  C  4  X   -0.292441   0.000000   0.000000   0.000000  -0.553831
   53  C  4  Y    0.000000   0.244888  -0.235121  -0.042140   0.000000
   54  C  4  Z    0.000000  -0.078993   0.310472  -0.688840   0.000000
   55  C  4 XX    0.000000  -0.009943   0.011925   0.016512   0.000000
   56  C  4 YY    0.000000   0.010073  -0.006187   0.004023   0.000000
   57  C  4 ZZ    0.000000  -0.000130  -0.005738  -0.020535   0.000000
   58  C  4 XY    0.002426   0.000000   0.000000   0.000000  -0.026534
   59  C  4 XZ   -0.001376   0.000000   0.000000   0.000000  -0.012729
   60  C  4 YZ    0.000000  -0.001818  -0.001010   0.002730   0.000000
   61  H  5  S    0.000000  -0.032668   0.028746   0.001948   0.000000
   62  H  5  S    0.000000  -1.232749   1.742415  -0.593435   0.000000
   63  H  5  X    0.016595   0.000000   0.000000   0.000000  -0.013251
   64  H  5  Y    0.000000   0.010217  -0.009158   0.011918   0.000000
   65  H  5  Z    0.000000  -0.008805   0.009424  -0.003127   0.000000
   66  H  6  S    0.000000  -0.032668  -0.028746   0.001948   0.000000
   67  H  6  S    0.000000  -1.232749  -1.742415  -0.593435   0.000000
   68  H  6  X    0.016595   0.000000   0.000000   0.000000  -0.013251
   69  H  6  Y    0.000000  -0.010217  -0.009158  -0.011918   0.000000
   70  H  6  Z    0.000000  -0.008805  -0.009424  -0.003127   0.000000
   71  H  7  S    0.000000  -0.023909  -0.002293  -0.006750   0.000000
   72  H  7  S    0.000000  -0.184998  -0.172694   1.360504   0.000000
   73  H  7  X   -0.012067   0.000000   0.000000   0.000000  -0.010067
   74  H  7  Y    0.000000   0.000543  -0.001722  -0.006550   0.000000
   75  H  7  Z    0.000000   0.001669  -0.003522  -0.020068   0.000000
   76  H  8  S    0.000000  -0.023909   0.002293  -0.006750   0.000000
   77  H  8  S    0.000000  -0.184998   0.172694   1.360504   0.000000
   78  H  8  X   -0.012067   0.000000   0.000000   0.000000  -0.010067
   79  H  8  Y    0.000000  -0.000543  -0.001722   0.006550   0.000000
   80  H  8  Z    0.000000   0.001669   0.003522  -0.020068   0.000000
   81  H  9  S    0.000000   0.007319  -0.004522   0.025601   0.000000
   82  H  9  S    0.000000  -0.464679   0.610127   0.331634   0.000000
   83  H  9  X   -0.009875   0.000000   0.000000   0.000000  -0.011975
   84  H  9  Y    0.000000   0.007452  -0.012372  -0.004324   0.000000
   85  H  9  Z    0.000000   0.002577  -0.000183   0.007157   0.000000
   86  H 10  S    0.000000   0.007319   0.004522   0.025601   0.000000
   87  H 10  S    0.000000  -0.464679  -0.610127   0.331634   0.000000
   88  H 10  X   -0.009875   0.000000   0.000000   0.000000  -0.011975
   89  H 10  Y    0.000000  -0.007452  -0.012372   0.004324   0.000000
   90  H 10  Z    0.000000   0.002577   0.000183   0.007157   0.000000

                     21         22         23         24         25
                    0.2666     0.2681     0.3227     0.3678     0.4941
                     B2         A1         B2         A1         A1  
    1  C  1  S    0.000000  -0.012726   0.000000   0.068524  -0.072523
    2  C  1  S    0.000000   0.077476   0.000000   0.057689  -0.105479
    3  C  1  S    0.000000   0.368445   0.000000  -2.435200   3.585419
    4  C  1  X    0.000000   0.000000   0.000000   0.000000   0.000000
    5  C  1  Y    0.081828   0.000000  -0.111606   0.000000   0.000000
    6  C  1  Z    0.000000  -0.018482   0.000000  -0.010065  -0.027855
    7  C  1  X    0.000000   0.000000   0.000000   0.000000   0.000000
    8  C  1  Y    0.309329   0.000000  -0.645509   0.000000   0.000000
    9  C  1  Z    0.000000  -0.144595   0.000000  -2.281448   3.347364
   10  C  1 XX    0.000000   0.005579   0.000000   0.050094  -0.055266
   11  C  1 YY    0.000000   0.005020   0.000000  -0.036417   0.041682
   12  C  1 ZZ    0.000000  -0.010599   0.000000  -0.013677   0.013584
   13  C  1 XY    0.000000   0.000000   0.000000   0.000000   0.000000
   14  C  1 XZ    0.000000   0.000000   0.000000   0.000000   0.000000
   15  C  1 YZ    0.026600   0.000000   0.023141   0.000000   0.000000
   16  C  2  S    0.000000   0.003156   0.000000  -0.108398  -0.017152
   17  C  2  S    0.000000   0.003089   0.000000   0.067119   0.049933
   18  C  2  S    0.000000  -0.132961   0.000000   5.180822   0.005140
   19  C  2  X    0.000000   0.000000   0.000000   0.000000   0.000000
   20  C  2  Y    0.113068   0.000000   0.039575   0.000000   0.000000
   21  C  2  Z    0.000000   0.100494   0.000000  -0.041845   0.306541
   22  C  2  X    0.000000   0.000000   0.000000   0.000000   0.000000
   23  C  2  Y    0.240997   0.000000  -0.058782   0.000000   0.000000
   24  C  2  Z    0.000000  -0.474314   0.000000  -1.072917   4.923048
   25  C  2 XX    0.000000   0.003261   0.000000  -0.062286   0.004782
   26  C  2 YY    0.000000  -0.030974   0.000000   0.007264   0.058751
   27  C  2 ZZ    0.000000   0.027713   0.000000   0.055022  -0.063533
   28  C  2 XY    0.000000   0.000000   0.000000   0.000000   0.000000
   29  C  2 XZ    0.000000   0.000000   0.000000   0.000000   0.000000
   30  C  2 YZ   -0.019391   0.000000  -0.011353   0.000000   0.000000
   31  C  3  S   -0.050832   0.014949  -0.005683   0.043747   0.055430
   32  C  3  S    0.071313  -0.038830   0.026975   0.002467   0.043387
   33  C  3  S    1.575882  -0.327061   0.206788  -1.074179  -1.775964
   34  C  3  X    0.000000   0.000000   0.000000   0.000000   0.000000
   35  C  3  Y   -0.084232   0.097804   0.100059  -0.048186  -0.009923
   36  C  3  Z    0.020486   0.144755   0.168721   0.009565   0.075626
   37  C  3  X    0.000000   0.000000   0.000000   0.000000   0.000000
   38  C  3  Y   -0.408099   0.691752   0.579971  -0.684104  -2.261308
   39  C  3  Z    0.048789   0.782543   1.049853   0.697008  -0.118156
   40  C  3 XX   -0.014326   0.000567   0.001312   0.022716   0.026266
   41  C  3 YY    0.010018   0.006638  -0.015562  -0.002544  -0.018236
   42  C  3 ZZ    0.004309  -0.007205   0.014250  -0.020172  -0.008030
   43  C  3 XY    0.000000   0.000000   0.000000   0.000000   0.000000
   44  C  3 XZ    0.000000   0.000000   0.000000   0.000000   0.000000
   45  C  3 YZ    0.021685  -0.006702  -0.005878   0.006370  -0.015534
   46  C  4  S    0.050832   0.014949   0.005683   0.043747   0.055430
   47  C  4  S   -0.071313  -0.038830  -0.026975   0.002467   0.043387
   48  C  4  S   -1.575882  -0.327061  -0.206788  -1.074179  -1.775964
   49  C  4  X    0.000000   0.000000   0.000000   0.000000   0.000000
   50  C  4  Y   -0.084232  -0.097804   0.100059   0.048186   0.009923
   51  C  4  Z   -0.020486   0.144755  -0.168721   0.009565   0.075626
   52  C  4  X    0.000000   0.000000   0.000000   0.000000   0.000000
   53  C  4  Y   -0.408099  -0.691752   0.579971   0.684104   2.261308
   54  C  4  Z   -0.048789   0.782543  -1.049853   0.697008  -0.118156
   55  C  4 XX    0.014326   0.000567  -0.001312   0.022716   0.026266
   56  C  4 YY   -0.010018   0.006638   0.015562  -0.002544  -0.018236
   57  C  4 ZZ   -0.004309  -0.007205  -0.014250  -0.020172  -0.008030
   58  C  4 XY    0.000000   0.000000   0.000000   0.000000   0.000000
   59  C  4 XZ    0.000000   0.000000   0.000000   0.000000   0.000000
   60  C  4 YZ    0.021685   0.006702  -0.005878  -0.006370   0.015534
   61  H  5  S   -0.075426   0.005506  -0.007180  -0.110714   0.217947
   62  H  5  S   -0.571207  -0.478141   0.814973  -0.224257   0.764146
   63  H  5  X    0.000000   0.000000   0.000000   0.000000   0.000000
   64  H  5  Y    0.005875   0.004565  -0.008599  -0.023669   0.026865
   65  H  5  Z    0.009479   0.005661   0.006402  -0.003716  -0.005511
   66  H  6  S    0.075426   0.005506   0.007180  -0.110714   0.217947
   67  H  6  S    0.571207  -0.478141  -0.814973  -0.224257   0.764146
   68  H  6  X    0.000000   0.000000   0.000000   0.000000   0.000000
   69  H  6  Y    0.005875  -0.004565  -0.008599   0.023669  -0.026865
   70  H  6  Z   -0.009479   0.005661  -0.006402  -0.003716  -0.005511
   71  H  7  S    0.036583  -0.025918   0.013662  -0.063314  -0.025382
   72  H  7  S    0.945812  -0.895032   1.666715  -0.020453   0.306703
   73  H  7  X    0.000000   0.000000   0.000000   0.000000   0.000000
   74  H  7  Y    0.009447   0.003396   0.000610   0.009377   0.011200
   75  H  7  Z   -0.014743   0.008931  -0.020639  -0.010608  -0.012951
   76  H  8  S   -0.036583  -0.025918  -0.013662  -0.063314  -0.025382
   77  H  8  S   -0.945812  -0.895032  -1.666715  -0.020453   0.306703
   78  H  8  X    0.000000   0.000000   0.000000   0.000000   0.000000
   79  H  8  Y    0.009447  -0.003396   0.000610  -0.009377  -0.011200
   80  H  8  Z    0.014743   0.008931   0.020639  -0.010608  -0.012951
   81  H  9  S   -0.025221   0.032683  -0.012222   0.002871  -0.132995
   82  H  9  S    1.190490   1.613649  -1.340106   0.232936  -1.109810
   83  H  9  X    0.000000   0.000000   0.000000   0.000000   0.000000
   84  H  9  Y   -0.018442  -0.013711   0.018080   0.000931  -0.000483
   85  H  9  Z    0.011018   0.010316  -0.006602   0.015146   0.008965
   86  H 10  S    0.025221   0.032683   0.012222   0.002871  -0.132995
   87  H 10  S   -1.190490   1.613649   1.340106   0.232936  -1.109810
   88  H 10  X    0.000000   0.000000   0.000000   0.000000   0.000000
   89  H 10  Y   -0.018442   0.013711   0.018080  -0.000931   0.000483
   90  H 10  Z   -0.011018   0.010316   0.006602   0.015146   0.008965

                     26         27         28         29         30
                    0.5124     0.5903     0.6008     0.6617     0.6701
                     B2         B2         A1         B1         A1  
    1  C  1  S    0.000000   0.000000   0.067740   0.000000  -0.192694
    2  C  1  S    0.000000   0.000000   0.238928   0.000000  -0.277597
    3  C  1  S    0.000000   0.000000   1.209672   0.000000   0.929648
    4  C  1  X    0.000000   0.000000   0.000000  -0.935834   0.000000
    5  C  1  Y    0.114020   0.044112   0.000000   0.000000   0.000000
    6  C  1  Z    0.000000   0.000000   0.386713   0.000000  -0.229522
    7  C  1  X    0.000000   0.000000   0.000000   0.953756   0.000000
    8  C  1  Y   -1.806100  -0.601411   0.000000   0.000000   0.000000
    9  C  1  Z    0.000000   0.000000   0.632749   0.000000   0.588594
   10  C  1 XX    0.000000   0.000000   0.039203   0.000000   0.268261
   11  C  1 YY    0.000000   0.000000  -0.028206   0.000000  -0.202029
   12  C  1 ZZ    0.000000   0.000000  -0.010997   0.000000  -0.066232
   13  C  1 XY    0.000000   0.000000   0.000000   0.000000   0.000000
   14  C  1 XZ    0.000000   0.000000   0.000000  -0.034099   0.000000
   15  C  1 YZ    0.073094  -0.160002   0.000000   0.000000   0.000000
   16  C  2  S    0.000000   0.000000   0.052753   0.000000  -0.216899
   17  C  2  S    0.000000   0.000000   0.070643   0.000000  -0.492793
   18  C  2  S    0.000000   0.000000  -0.830346   0.000000   0.301476
   19  C  2  X    0.000000   0.000000   0.000000  -0.173716   0.000000
   20  C  2  Y    0.322716   0.128212   0.000000   0.000000   0.000000
   21  C  2  Z    0.000000   0.000000  -0.005612   0.000000   0.261120
   22  C  2  X    0.000000   0.000000   0.000000   0.053972   0.000000
   23  C  2  Y    4.702740   0.904123   0.000000   0.000000   0.000000
   24  C  2  Z    0.000000   0.000000   1.793266   0.000000   0.427804
   25  C  2 XX    0.000000   0.000000  -0.007727   0.000000   0.106810
   26  C  2 YY    0.000000   0.000000  -0.092691   0.000000  -0.072178
   27  C  2 ZZ    0.000000   0.000000   0.100417   0.000000  -0.034631
   28  C  2 XY    0.000000   0.000000   0.000000   0.000000   0.000000
   29  C  2 XZ    0.000000   0.000000   0.000000   0.093738   0.000000
   30  C  2 YZ    0.001543   0.139995   0.000000   0.000000   0.000000
   31  C  3  S   -0.057534  -0.067590  -0.012980   0.000000  -0.054893
   32  C  3  S   -0.025731  -0.176768  -0.056919   0.000000  -0.140013
   33  C  3  S    2.473034   0.752046  -0.307982   0.000000  -0.019290
   34  C  3  X    0.000000   0.000000   0.000000  -0.253650   0.000000
   35  C  3  Y    0.137918  -0.217011  -0.136163   0.000000  -0.104358
   36  C  3  Z   -0.056710   0.193143   0.035271   0.000000   0.073875
   37  C  3  X    0.000000   0.000000   0.000000   0.119463   0.000000
   38  C  3  Y    1.914387   0.648401  -0.208011   0.000000  -0.272329
   39  C  3  Z   -1.997429  -0.736857  -0.099426   0.000000   0.021526
   40  C  3 XX   -0.018984  -0.055935  -0.028335   0.000000   0.046516
   41  C  3 YY    0.018381  -0.027224   0.099399   0.000000   0.001577
   42  C  3 ZZ    0.000603   0.083160  -0.071064   0.000000  -0.048093
   43  C  3 XY    0.000000   0.000000   0.000000  -0.003310   0.000000
   44  C  3 XZ    0.000000   0.000000   0.000000  -0.011760   0.000000
   45  C  3 YZ    0.008442  -0.007153   0.072910   0.000000  -0.001979
   46  C  4  S    0.057534   0.067590  -0.012980   0.000000  -0.054893
   47  C  4  S    0.025731   0.176768  -0.056919   0.000000  -0.140013
   48  C  4  S   -2.473034  -0.752046  -0.307982   0.000000  -0.019290
   49  C  4  X    0.000000   0.000000   0.000000  -0.253650   0.000000
   50  C  4  Y    0.137918  -0.217011   0.136163   0.000000   0.104358
   51  C  4  Z    0.056710  -0.193143   0.035271   0.000000   0.073875
   52  C  4  X    0.000000   0.000000   0.000000   0.119463   0.000000
   53  C  4  Y    1.914387   0.648401   0.208011   0.000000   0.272329
   54  C  4  Z    1.997429   0.736857  -0.099426   0.000000   0.021526
   55  C  4 XX    0.018984   0.055935  -0.028335   0.000000   0.046516
   56  C  4 YY   -0.018381   0.027224   0.099399   0.000000   0.001577
   57  C  4 ZZ   -0.000603  -0.083160  -0.071064   0.000000  -0.048093
   58  C  4 XY    0.000000   0.000000   0.000000   0.003310   0.000000
   59  C  4 XZ    0.000000   0.000000   0.000000  -0.011760   0.000000
   60  C  4 YZ    0.008442  -0.007153  -0.072910   0.000000   0.001979
   61  H  5  S   -0.092600   0.436815  -0.093637   0.000000  -0.608945
   62  H  5  S    1.184573  -0.112797   0.358099   0.000000   0.425844
   63  H  5  X    0.000000   0.000000   0.000000  -0.041314   0.000000
   64  H  5  Y   -0.024985   0.015083  -0.007095   0.000000  -0.108569
   65  H  5  Z    0.027655  -0.071214  -0.003499   0.000000   0.046872
   66  H  6  S    0.092600  -0.436815  -0.093637   0.000000  -0.608945
   67  H  6  S   -1.184573   0.112797   0.358099   0.000000   0.425844
   68  H  6  X    0.000000   0.000000   0.000000  -0.041314   0.000000
   69  H  6  Y   -0.024985   0.015083   0.007095   0.000000   0.108569
   70  H  6  Z   -0.027655   0.071214  -0.003499   0.000000   0.046872
   71  H  7  S   -0.056430  -0.369158  -0.264806   0.000000  -0.069212
   72  H  7  S   -1.241189   0.054913   0.261252   0.000000   0.025830
   73  H  7  X    0.000000   0.000000   0.000000  -0.026237   0.000000
   74  H  7  Y    0.010725  -0.005129  -0.043949   0.000000   0.012041
   75  H  7  Z    0.000465  -0.033766  -0.032107   0.000000  -0.022433
   76  H  8  S    0.056430   0.369158  -0.264806   0.000000  -0.069212
   77  H  8  S    1.241189  -0.054913   0.261252   0.000000   0.025830
   78  H  8  X    0.000000   0.000000   0.000000  -0.026237   0.000000
   79  H  8  Y    0.010725  -0.005129   0.043949   0.000000  -0.012041
   80  H  8  Z   -0.000465   0.033766  -0.032107   0.000000  -0.022433
   81  H  9  S   -0.104408  -0.003738   0.422423   0.000000  -0.080231
   82  H  9  S   -0.257891   0.055732  -0.612813   0.000000  -0.255435
   83  H  9  X    0.000000   0.000000   0.000000  -0.014927   0.000000
   84  H  9  Y   -0.012157   0.011368   0.057282   0.000000  -0.010159
   85  H  9  Z    0.013395   0.027085   0.001934   0.000000  -0.003904
   86  H 10  S    0.104408   0.003738   0.422423   0.000000  -0.080231
   87  H 10  S    0.257891  -0.055732  -0.612813   0.000000  -0.255435
   88  H 10  X    0.000000   0.000000   0.000000  -0.014927   0.000000
   89  H 10  Y   -0.012157   0.011368  -0.057282   0.000000   0.010159
   90  H 10  Z   -0.013395  -0.027085   0.001934   0.000000  -0.003904

                     31         32         33         34         35
                    0.7418     0.7526     0.7566     0.7652     0.7856
                     A1         B2         B1         A1         A2  
    1  C  1  S    0.056363   0.000000   0.000000  -0.071813   0.000000
    2  C  1  S    0.163824   0.000000   0.000000  -0.320932   0.000000
    3  C  1  S    0.198608   0.000000   0.000000  -0.367455   0.000000
    4  C  1  X    0.000000   0.000000  -0.364128   0.000000   0.000000
    5  C  1  Y    0.000000  -0.134302   0.000000   0.000000   0.000000
    6  C  1  Z    0.242925   0.000000   0.000000  -0.231277   0.000000
    7  C  1  X    0.000000   0.000000   0.548656   0.000000   0.000000
    8  C  1  Y    0.000000   0.420208   0.000000   0.000000   0.000000
    9  C  1  Z   -0.252537   0.000000   0.000000  -0.305558   0.000000
   10  C  1 XX    0.005869   0.000000   0.000000  -0.119324   0.000000
   11  C  1 YY    0.035556   0.000000   0.000000   0.021175   0.000000
   12  C  1 ZZ   -0.041426   0.000000   0.000000   0.098149   0.000000
   13  C  1 XY    0.000000   0.000000   0.000000   0.000000  -0.062719
   14  C  1 XZ    0.000000   0.000000  -0.015282   0.000000   0.000000
   15  C  1 YZ    0.000000  -0.062530   0.000000   0.000000   0.000000
   16  C  2  S   -0.117669   0.000000   0.000000  -0.172693   0.000000
   17  C  2  S   -0.446651   0.000000   0.000000  -0.215845   0.000000
   18  C  2  S    0.796022   0.000000   0.000000   0.231334   0.000000
   19  C  2  X    0.000000   0.000000   0.208343   0.000000   0.000000
   20  C  2  Y    0.000000  -0.519032   0.000000   0.000000   0.000000
   21  C  2  Z   -0.264797   0.000000   0.000000  -0.274552   0.000000
   22  C  2  X    0.000000   0.000000  -0.126434   0.000000   0.000000
   23  C  2  Y    0.000000   0.662880   0.000000   0.000000   0.000000
   24  C  2  Z    0.626717   0.000000   0.000000  -0.580462   0.000000
   25  C  2 XX   -0.121794   0.000000   0.000000   0.258340   0.000000
   26  C  2 YY    0.084963   0.000000   0.000000  -0.124563   0.000000
   27  C  2 ZZ    0.036831   0.000000   0.000000  -0.133777   0.000000
   28  C  2 XY    0.000000   0.000000   0.000000   0.000000   0.133966
   29  C  2 XZ    0.000000   0.000000   0.124059   0.000000   0.000000
   30  C  2 YZ    0.000000   0.051874   0.000000   0.000000   0.000000
   31  C  3  S   -0.028613   0.103369   0.000000  -0.164251   0.000000
   32  C  3  S    0.089533   0.110377   0.000000  -0.379640   0.000000
   33  C  3  S   -0.032239  -0.098756   0.000000   0.554906   0.000000
   34  C  3  X    0.000000   0.000000   0.656079   0.000000  -0.713761
   35  C  3  Y    0.177869   0.046789   0.000000  -0.375916   0.000000
   36  C  3  Z   -0.102173  -0.053994   0.000000   0.172963   0.000000
   37  C  3  X    0.000000   0.000000  -0.652358   0.000000   0.833591
   38  C  3  Y   -0.469390   0.188992   0.000000   0.620214   0.000000
   39  C  3  Z    0.174685  -0.033438   0.000000  -0.006916   0.000000
   40  C  3 XX    0.174398  -0.184275   0.000000   0.080473   0.000000
   41  C  3 YY   -0.106760   0.076890   0.000000  -0.018441   0.000000
   42  C  3 ZZ   -0.067639   0.107385   0.000000  -0.062032   0.000000
   43  C  3 XY    0.000000   0.000000   0.017643   0.000000  -0.050965
   44  C  3 XZ    0.000000   0.000000  -0.043630   0.000000   0.002767
   45  C  3 YZ    0.004842   0.007362   0.000000  -0.061410   0.000000
   46  C  4  S   -0.028613  -0.103369   0.000000  -0.164251   0.000000
   47  C  4  S    0.089533  -0.110377   0.000000  -0.379640   0.000000
   48  C  4  S   -0.032239   0.098756   0.000000   0.554906   0.000000
   49  C  4  X    0.000000   0.000000   0.656079   0.000000   0.713761
   50  C  4  Y   -0.177869   0.046789   0.000000   0.375916   0.000000
   51  C  4  Z   -0.102173   0.053994   0.000000   0.172963   0.000000
   52  C  4  X    0.000000   0.000000  -0.652358   0.000000  -0.833591
   53  C  4  Y    0.469390   0.188992   0.000000  -0.620214   0.000000
   54  C  4  Z    0.174685   0.033438   0.000000  -0.006916   0.000000
   55  C  4 XX    0.174398   0.184275   0.000000   0.080473   0.000000
   56  C  4 YY   -0.106760  -0.076890   0.000000  -0.018441   0.000000
   57  C  4 ZZ   -0.067639  -0.107385   0.000000  -0.062032   0.000000
   58  C  4 XY    0.000000   0.000000  -0.017643   0.000000  -0.050965
   59  C  4 XZ    0.000000   0.000000  -0.043630   0.000000  -0.002767
   60  C  4 YZ   -0.004842   0.007362   0.000000   0.061410   0.000000
   61  H  5  S   -0.024378  -0.121137   0.000000   0.311989   0.000000
   62  H  5  S   -0.057749  -0.311948   0.000000  -0.359970   0.000000
   63  H  5  X    0.000000   0.000000  -0.003782   0.000000  -0.024343
   64  H  5  Y    0.011925   0.047655   0.000000   0.051738   0.000000
   65  H  5  Z    0.007247   0.018289   0.000000  -0.044962   0.000000
   66  H  6  S   -0.024378   0.121137   0.000000   0.311989   0.000000
   67  H  6  S   -0.057749   0.311948   0.000000  -0.359970   0.000000
   68  H  6  X    0.000000   0.000000  -0.003782   0.000000   0.024343
   69  H  6  Y   -0.011925   0.047655   0.000000  -0.051738   0.000000
   70  H  6  Z    0.007247  -0.018289   0.000000  -0.044962   0.000000
   71  H  7  S   -0.491104  -0.376755   0.000000  -0.207814   0.000000
   72  H  7  S    0.138796   0.178147   0.000000  -0.071026   0.000000
   73  H  7  X    0.000000   0.000000   0.021194   0.000000   0.036730
   74  H  7  Y   -0.014955   0.027019   0.000000  -0.002018   0.000000
   75  H  7  Z   -0.072808  -0.090002   0.000000  -0.035483   0.000000
   76  H  8  S   -0.491104   0.376755   0.000000  -0.207814   0.000000
   77  H  8  S    0.138796  -0.178147   0.000000  -0.071026   0.000000
   78  H  8  X    0.000000   0.000000   0.021194   0.000000  -0.036730
   79  H  8  Y    0.014955   0.027019   0.000000   0.002018   0.000000
   80  H  8  Z   -0.072808   0.090002   0.000000  -0.035483   0.000000
   81  H  9  S   -0.436683  -0.529634   0.000000  -0.064878   0.000000
   82  H  9  S    0.128168   0.109828   0.000000   0.281526   0.000000
   83  H  9  X    0.000000   0.000000   0.042591   0.000000   0.019068
   84  H  9  Y   -0.062678  -0.080476   0.000000  -0.023397   0.000000
   85  H  9  Z    0.049990   0.030977   0.000000   0.053459   0.000000
   86  H 10  S   -0.436683   0.529634   0.000000  -0.064878   0.000000
   87  H 10  S    0.128168  -0.109828   0.000000   0.281526   0.000000
   88  H 10  X    0.000000   0.000000   0.042591   0.000000  -0.019068
   89  H 10  Y    0.062678  -0.080476   0.000000   0.023397   0.000000
   90  H 10  Z    0.049990  -0.030977   0.000000   0.053459   0.000000

                     36         37         38         39         40
                    0.8330     0.8830     0.9019     0.9063     0.9501
                     B2         B1         A1         B2         A1  
    1  C  1  S    0.000000   0.000000   0.295421   0.000000   0.313105
    2  C  1  S    0.000000   0.000000   0.691220   0.000000   0.675654
    3  C  1  S    0.000000   0.000000  -0.966342   0.000000   0.174755
    4  C  1  X    0.000000   0.201006   0.000000   0.000000   0.000000
    5  C  1  Y   -0.829885   0.000000   0.000000   0.200931   0.000000
    6  C  1  Z    0.000000   0.000000  -0.432951   0.000000  -0.410998
    7  C  1  X    0.000000  -0.755681   0.000000   0.000000   0.000000
    8  C  1  Y    2.247145   0.000000   0.000000  -0.856079   0.000000
    9  C  1  Z    0.000000   0.000000   1.886100   0.000000   1.566588
   10  C  1 XX    0.000000   0.000000   0.020581   0.000000  -0.051080
   11  C  1 YY    0.000000   0.000000  -0.187345   0.000000  -0.193467
   12  C  1 ZZ    0.000000   0.000000   0.166763   0.000000   0.244547
   13  C  1 XY    0.000000   0.000000   0.000000   0.000000   0.000000
   14  C  1 XZ    0.000000  -0.101242   0.000000   0.000000   0.000000
   15  C  1 YZ   -0.209777   0.000000   0.000000  -0.062561   0.000000
   16  C  2  S    0.000000   0.000000   0.068749   0.000000   0.128958
   17  C  2  S    0.000000   0.000000   0.181909   0.000000   0.329594
   18  C  2  S    0.000000   0.000000  -0.576987   0.000000  -1.163686
   19  C  2  X    0.000000  -1.004729   0.000000   0.000000   0.000000
   20  C  2  Y    0.185143   0.000000   0.000000  -0.057186   0.000000
   21  C  2  Z    0.000000   0.000000  -0.192063   0.000000  -0.382527
   22  C  2  X    0.000000   2.029234   0.000000   0.000000   0.000000
   23  C  2  Y   -0.259366   0.000000   0.000000   0.364469   0.000000
   24  C  2  Z    0.000000   0.000000   0.815747   0.000000   2.505151
   25  C  2 XX    0.000000   0.000000  -0.006862   0.000000   0.013661
   26  C  2 YY    0.000000   0.000000   0.144066   0.000000   0.016868
   27  C  2 ZZ    0.000000   0.000000  -0.137204   0.000000  -0.030529
   28  C  2 XY    0.000000   0.000000   0.000000   0.000000   0.000000
   29  C  2 XZ    0.000000   0.000921   0.000000   0.000000   0.000000
   30  C  2 YZ    0.061599   0.000000   0.000000  -0.106922   0.000000
   31  C  3  S    0.005837   0.000000   0.024960  -0.031480   0.094099
   32  C  3  S    0.076065   0.000000   0.038597  -0.108589   0.227212
   33  C  3  S   -0.163259   0.000000  -0.211677   0.404447  -1.019215
   34  C  3  X    0.000000   0.230238   0.000000   0.000000   0.000000
   35  C  3  Y    0.007625   0.000000  -0.169440   0.381862   0.163121
   36  C  3  Z    0.077724   0.000000  -0.425582   0.413814   0.417613
   37  C  3  X    0.000000  -0.744538   0.000000   0.000000   0.000000
   38  C  3  Y    0.370450   0.000000   0.122359  -1.178242  -0.871639
   39  C  3  Z   -0.389060   0.000000   1.280303  -0.878108  -1.320718
   40  C  3 XX    0.053823   0.000000   0.003676  -0.035123   0.046442
   41  C  3 YY    0.056197   0.000000  -0.096100   0.161137   0.031280
   42  C  3 ZZ   -0.110020   0.000000   0.092424  -0.126014  -0.077722
   43  C  3 XY    0.000000  -0.044651   0.000000   0.000000   0.000000
   44  C  3 XZ    0.000000   0.028342   0.000000   0.000000   0.000000
   45  C  3 YZ    0.039187   0.000000  -0.034636   0.130271   0.013516
   46  C  4  S   -0.005837   0.000000   0.024960   0.031480   0.094099
   47  C  4  S   -0.076065   0.000000   0.038597   0.108589   0.227212
   48  C  4  S    0.163259   0.000000  -0.211677  -0.404447  -1.019215
   49  C  4  X    0.000000   0.230238   0.000000   0.000000   0.000000
   50  C  4  Y    0.007625   0.000000   0.169440   0.381862  -0.163121
   51  C  4  Z   -0.077724   0.000000  -0.425582  -0.413814   0.417613
   52  C  4  X    0.000000  -0.744538   0.000000   0.000000   0.000000
   53  C  4  Y    0.370450   0.000000  -0.122359  -1.178242   0.871639
   54  C  4  Z    0.389060   0.000000   1.280303   0.878108  -1.320718
   55  C  4 XX   -0.053823   0.000000   0.003676   0.035123   0.046442
   56  C  4 YY   -0.056197   0.000000  -0.096100  -0.161137   0.031280
   57  C  4 ZZ    0.110020   0.000000   0.092424   0.126014  -0.077722
   58  C  4 XY    0.000000   0.044651   0.000000   0.000000   0.000000
   59  C  4 XZ    0.000000   0.028342   0.000000   0.000000   0.000000
   60  C  4 YZ    0.039187   0.000000   0.034636   0.130271  -0.013516
   61  H  5  S    0.127197   0.000000  -0.022242   0.190817  -0.094216
   62  H  5  S   -1.546556   0.000000   1.165760   0.214706   0.869403
   63  H  5  X    0.000000  -0.010077   0.000000   0.000000   0.000000
   64  H  5  Y    0.159110   0.000000  -0.137264  -0.028607  -0.135234
   65  H  5  Z   -0.133206   0.000000   0.022410  -0.018523   0.024034
   66  H  6  S   -0.127197   0.000000  -0.022242  -0.190817  -0.094216
   67  H  6  S    1.546556   0.000000   1.165760  -0.214706   0.869403
   68  H  6  X    0.000000  -0.010077   0.000000   0.000000   0.000000
   69  H  6  Y    0.159110   0.000000   0.137264  -0.028607   0.135234
   70  H  6  Z    0.133206   0.000000   0.022410   0.018523   0.024034
   71  H  7  S    0.211769   0.000000  -0.064883   0.153756   0.011572
   72  H  7  S   -0.652255   0.000000  -0.877988  -0.718844   1.036119
   73  H  7  X    0.000000  -0.009999   0.000000   0.000000   0.000000
   74  H  7  Y    0.019276   0.000000  -0.015927   0.039872  -0.007438
   75  H  7  Z    0.077799   0.000000   0.110250   0.124633  -0.141369
   76  H  8  S   -0.211769   0.000000  -0.064883  -0.153756   0.011572
   77  H  8  S    0.652255   0.000000  -0.877988   0.718844   1.036119
   78  H  8  X    0.000000  -0.009999   0.000000   0.000000   0.000000
   79  H  8  Y    0.019276   0.000000   0.015927   0.039872   0.007438
   80  H  8  Z   -0.077799   0.000000   0.110250  -0.124633  -0.141369
   81  H  9  S   -0.107582   0.000000   0.062945  -0.164442   0.000242
   82  H  9  S    0.055066   0.000000   0.411848   1.394478  -0.812437
   83  H  9  X    0.000000  -0.008989   0.000000   0.000000   0.000000
   84  H  9  Y   -0.025990   0.000000  -0.091805  -0.182518   0.053044
   85  H  9  Z   -0.015052   0.000000   0.038729   0.075757  -0.034341
   86  H 10  S    0.107582   0.000000   0.062945   0.164442   0.000242
   87  H 10  S   -0.055066   0.000000   0.411848  -1.394478  -0.812437
   88  H 10  X    0.000000  -0.008989   0.000000   0.000000   0.000000
   89  H 10  Y   -0.025990   0.000000   0.091805  -0.182518  -0.053044
   90  H 10  Z    0.015052   0.000000   0.038729  -0.075757  -0.034341

                     41         42         43         44         45
                    0.9865     0.9999     1.0805     1.1431     1.1581
[...]
    5 H             0.902667    0.097333         0.886055    0.113945
    6 H             0.902667    0.097333         0.886055    0.113945
    7 H             0.962429    0.037571         0.933330    0.066670
    8 H             0.962429    0.037571         0.933330    0.066670
    9 H             0.984322    0.015678         0.940843    0.059157
   10 H             0.984322    0.015678         0.940843    0.059157

          MULLIKEN SPHERICAL HARMONIC POPULATIONS
       ATOM           S       P       D      F      G      H      I    TOTAL
    1 C             3.07    2.59    0.06   0.00   0.00   0.00   0.00    5.73
    2 C             3.20    3.02    0.12   0.00   0.00   0.00   0.00    6.34
    3 C             3.06    3.01    0.04   0.00   0.00   0.00   0.00    6.12
    4 C             3.06    3.01    0.04   0.00   0.00   0.00   0.00    6.12
    5 H             0.87    0.03    0.00   0.00   0.00   0.00   0.00    0.90
    6 H             0.87    0.03    0.00   0.00   0.00   0.00   0.00    0.90
    7 H             0.93    0.03    0.00   0.00   0.00   0.00   0.00    0.96
    8 H             0.93    0.03    0.00   0.00   0.00   0.00   0.00    0.96
    9 H             0.95    0.03    0.00   0.00   0.00   0.00   0.00    0.98
   10 H             0.95    0.03    0.00   0.00   0.00   0.00   0.00    0.98

          -------------------------------
          BOND ORDER AND VALENCE ANALYSIS     BOND ORDER THRESHOLD=0.050
          -------------------------------

                   BOND                       BOND                       BOND
  ATOM PAIR DIST  ORDER      ATOM PAIR DIST  ORDER      ATOM PAIR DIST  ORDER
    1   2  1.338  1.574        1   3  2.429  0.116        1   4  2.429  0.116
    1   5  1.077  0.949        1   6  1.077  0.949        2   3  1.453  1.306
    2   4  1.453  1.306        3   4  2.493  0.475        3   8  1.074  0.973
    3  10  1.074  0.971        4   7  1.074  0.973        4   9  1.074  0.971

                       TOTAL       BONDED        FREE
      ATOM            VALENCE     VALENCE     VALENCE
    1 C                 3.697       3.697       0.000
    2 C                 4.326       4.326       0.000
    3 C                 3.851       3.851       0.000
    4 C                 3.851       3.851       0.000
    5 H                 0.973       0.973       0.000
    6 H                 0.973       0.973       0.000
    7 H                 0.989       0.989       0.000
    8 H                 0.989       0.989       0.000
    9 H                 0.988       0.988       0.000
   10 H                 0.988       0.988       0.000

          -----------------------------------------
          ATOMIC SPIN DENSITY AT THE NUCLEUS (A.U.)
          -----------------------------------------
                            SPIN DENS    ALPHA DENS     BETA DENS
    1  C            6.0     0.0000000      60.52259      60.52259
    2  C            6.0     0.0000000      60.40113      60.40113
    3  C            6.0     0.0000000      60.36155      60.36155
    4  C            6.0     0.0000000      60.36155      60.36155
    5  H            1.0     0.0000000       0.19010       0.19010
    6  H            1.0     0.0000000       0.19010       0.19010
    7  H            1.0     0.0000000       0.18920       0.18920
    8  H            1.0     0.0000000       0.18920       0.18920
    9  H            1.0     0.0000000       0.19009       0.19009
   10  H            1.0     0.0000000       0.19009       0.19009

          ---------------------
          ELECTROSTATIC MOMENTS
          ---------------------

 POINT   1           X           Y           Z (BOHR)    CHARGE
                 0.000000    0.000000    0.017912        0.00 (A.U.)
         DX          DY          DZ         /D/  (DEBYE)
     0.000000    0.000000   -3.542828    3.542828
 ...... END OF PROPERTY EVALUATION ......
 STEP CPU TIME =     0.03 TOTAL CPU TIME =        1.4 (    0.0 MIN)
 TOTAL WALL CLOCK TIME=        1.5 SECONDS, CPU UTILIZATION IS  97.95%

     ---------------------------
     COUPLED CLUSTER CALCULATION
     ---------------------------
 CCTYP                        =CCSD    
 TOTAL NUMBER OF MOS          =    86
 NUMBER OF OCCUPIED MOS       =    15
 NUMBER OF FROZEN CORE MOS    =     0
 NUMBER OF FROZEN VIRTUAL MOS =     0
 MAXIMUM CC ITERATIONS        =  1000
 MAXIMUM DIIS ITERATIONS      =    -1
 CONVERGENCE CRITERION FOR CC =    12
 AMPLITUDE ACCURACY THRESHOLD = 0.0E+00

     --------------------------------------------
     PARTIAL TWO ELECTRON INTEGRAL TRANSFORMATION
     --------------------------------------------

 NUMBER OF CORE MOLECULAR ORBITALS     =    0
 NUMBER OF OCCUPIED MOLECULAR ORBITALS =   86
 TOTAL NUMBER OF MOLECULAR ORBITALS    =   86
 TOTAL NUMBER OF ATOMIC ORBITALS       =   90
 THRESHOLD FOR KEEPING TRANSFORMED 2E- INTEGRALS = 1.000E-09
 AO INTEGRALS WILL BE READ IN FROM DISK...
 # OF WORDS AVAILABLE = 2000000000
 # OF WORDS NEEDED    =   31795982 FOR IN MEMORY TRANSFORMATION

 CHOOSING IN MEMORY PARTIAL TRANSFORMATION...
 TOTAL NUMBER OF TRANSFORMED 2E- INTEGRALS KEPT =   1860180
 ... END OF INTEGRAL TRANSFORMATION ...
 STEP CPU TIME =     3.99 TOTAL CPU TIME =        5.4 (    0.1 MIN)
 TOTAL WALL CLOCK TIME=        5.5 SECONDS, CPU UTILIZATION IS  99.27%

   -----------------------     ----------------------------------------------
   ROHF-COUPLED-CLUSTER PROGRAM     XXXXXXXXXXXXXXXXXXXXXXXXXXXXXXXXXXX
   -----------------------     ----------------------------------------------
 JESTEM W ROCCDRVR

 THE FOLLOWING CALCULATIONS WILL BE PERFORMED:
                                                     CCSD   

 THE FOLLOWING ENERGY WILL BE CONSIDERED THE HIGHEST LEVEL:    CCSD   
 THE AVAILABLE REPLICATED MEMORY IS  2000000000 WORDS.
 CONVERGENCE THRESHOLD:   1.0E-12
 MAXIMUM NUMBER OF ITERATIONS: 1000
 ### NH NP ###                    15                    71
 BEFORE DRROSING
 THE EOM-CCSD POINT GROUP IS C2V
 JESTEM W DRROSING

 MEMORY TO BE USED IN CC INTEGRAL SORTING IS    54734557 WORDS.
 THE MINIMUM MEMORY TO ACCOMPLISH SORTING IS    54734557 WORDS.
 BEFORE ROSING
 NINTMX                 15000
 JESTEM W ROSING STEP1
 JESTEM W ROSING STEP2
 NCCTCORR                    86
 JESTEM W ROSING STEP3
 NINTMX                 15000
 JESTEM W ROSING STEP4
 JESTEM W ROSING STEP5
 JESTEM W ROSING STEP3
 NINTMX                 15000
 JESTEM W ROSING STEP4
 JESTEM W ROSING STEP5
 JESTEM W ROSING STEP3
 NINTMX                 15000
 JESTEM W ROSING STEP4
 JESTEM W ROSING STEP5
 JESTEM W ROSING STEP3
 NINTMX                 15000
 JESTEM W ROSING STEP4
 JESTEM W ROSING STEP5
 JESTEM W ROSING STEP3
 NINTMX                 15000
 JESTEM W ROSING STEP4
 JESTEM W ROSING STEP5
 JESTEM W ROSING STEP3
 NINTMX                 15000
 JESTEM W ROSING STEP4
 JESTEM W ROSING STEP5
 JESTEM W ROSING STEP3
 NINTMX                 15000
 JESTEM W ROSING STEP4
 JESTEM W ROSING STEP5
 JESTEM W ROSING STEP3
 NINTMX                 15000
 JESTEM W ROSING STEP4
 JESTEM W ROSING STEP5
 JESTEM W ROSING STEP3
 NINTMX                 15000
 JESTEM W ROSING STEP4
 JESTEM W ROSING STEP5
 JESTEM W ROSING STEP3
 NINTMX                 15000
 JESTEM W ROSING STEP4
 JESTEM W ROSING STEP5
 JESTEM W ROSING STEP3
 NINTMX                 15000
 JESTEM W ROSING STEP4
 JESTEM W ROSING STEP5
 JESTEM W ROSING STEP3
 NINTMX                 15000
 JESTEM W ROSING STEP4
 JESTEM W ROSING STEP5
 JESTEM W ROSING STEP3
 NINTMX                 15000
 JESTEM W ROSING STEP4
 JESTEM W ROSING STEP5
 JESTEM W ROSING STEP3
 NINTMX                 15000
 JESTEM W ROSING STEP4
 JESTEM W ROSING STEP5
 JESTEM W ROSING STEP3
 NINTMX                 15000
 JESTEM W ROSING STEP4
 JESTEM W ROSING STEP5
 JESTEM W ROSING STEP3
 NINTMX                 15000
 JESTEM W ROSING STEP4
 JESTEM W ROSING STEP5
 JESTEM W ROSING STEP3
 NINTMX                 15000
 JESTEM W ROSING STEP4
 JESTEM W ROSING STEP5
 JESTEM W ROSING STEP3
 NINTMX                 15000
 JESTEM W ROSING STEP4
 JESTEM W ROSING STEP5
 JESTEM W ROSING STEP3
 NINTMX                 15000
 JESTEM W ROSING STEP4
 JESTEM W ROSING STEP5
 JESTEM W ROSING STEP3
 NINTMX                 15000
 JESTEM W ROSING STEP4
 JESTEM W ROSING STEP5
 JESTEM W ROSING STEP3
 NINTMX                 15000
 JESTEM W ROSING STEP4
 JESTEM W ROSING STEP5
 JESTEM W ROSING STEP3
 NINTMX                 15000
 JESTEM W ROSING STEP4
 JESTEM W ROSING STEP5
 JESTEM W ROSING STEP3
 NINTMX                 15000
 JESTEM W ROSING STEP4
 JESTEM W ROSING STEP5
 JESTEM W ROSING STEP3
 NINTMX                 15000
 JESTEM W ROSING STEP4
 JESTEM W ROSING STEP5
 JESTEM W ROSING STEP3
 NINTMX                 15000
 JESTEM W ROSING STEP4
 JESTEM W ROSING STEP5
 JESTEM W ROSING STEP3
 NINTMX                 15000
 JESTEM W ROSING STEP4
 JESTEM W ROSING STEP5
 JESTEM W ROSING STEP3
 NINTMX                 15000
 JESTEM W ROSING STEP4
 JESTEM W ROSING STEP5
 JESTEM W ROSING STEP3
 NINTMX                 15000
 JESTEM W ROSING STEP4
 JESTEM W ROSING STEP5
 JESTEM W ROSING STEP3
 NINTMX                 15000
 JESTEM W ROSING STEP4
 JESTEM W ROSING STEP5
 JESTEM W ROSING STEP3
 NINTMX                 15000
 JESTEM W ROSING STEP4
 JESTEM W ROSING STEP5
 JESTEM W ROSING STEP3
 NINTMX                 15000
 JESTEM W ROSING STEP4
 JESTEM W ROSING STEP5
 JESTEM W ROSING STEP3
 NINTMX                 15000
 JESTEM W ROSING STEP4
 JESTEM W ROSING STEP5
 JESTEM W ROSING STEP3
 NINTMX                 15000
 JESTEM W ROSING STEP4
 JESTEM W ROSING STEP5
 JESTEM W ROSING STEP3
 NINTMX                 15000
 JESTEM W ROSING STEP4
 JESTEM W ROSING STEP5
 JESTEM W ROSING STEP3
 NINTMX                 15000
 JESTEM W ROSING STEP4
 JESTEM W ROSING STEP5
 JESTEM W ROSING STEP3
 NINTMX                 15000
 JESTEM W ROSING STEP4
 JESTEM W ROSING STEP5
 JESTEM W ROSING STEP3
 NINTMX                 15000
 JESTEM W ROSING STEP4
 JESTEM W ROSING STEP5
 JESTEM W ROSING STEP3
 NINTMX                 15000
 JESTEM W ROSING STEP4
 JESTEM W ROSING STEP5
 JESTEM W ROSING STEP3
 NINTMX                 15000
 JESTEM W ROSING STEP4
 JESTEM W ROSING STEP5
 JESTEM W ROSING STEP3
 NINTMX                 15000
 JESTEM W ROSING STEP4
 JESTEM W ROSING STEP5
 JESTEM W ROSING STEP3
 NINTMX                 15000
 JESTEM W ROSING STEP4
 JESTEM W ROSING STEP5
 JESTEM W ROSING STEP3
 NINTMX                 15000
 JESTEM W ROSING STEP4
 JESTEM W ROSING STEP5
 JESTEM W ROSING STEP3
 NINTMX                 15000
 JESTEM W ROSING STEP4
 JESTEM W ROSING STEP5
 JESTEM W ROSING STEP3
 NINTMX                 15000
 JESTEM W ROSING STEP4
 JESTEM W ROSING STEP5
 JESTEM W ROSING STEP3
 NINTMX                 15000
 JESTEM W ROSING STEP4
 JESTEM W ROSING STEP5
 JESTEM W ROSING STEP3
 NINTMX                 15000
 JESTEM W ROSING STEP4
 JESTEM W ROSING STEP5
 JESTEM W ROSING STEP3
 NINTMX                 15000
 JESTEM W ROSING STEP4
 JESTEM W ROSING STEP5
 JESTEM W ROSING STEP3
 NINTMX                 15000
 JESTEM W ROSING STEP4
 JESTEM W ROSING STEP5
 JESTEM W ROSING STEP3
 NINTMX                 15000
 JESTEM W ROSING STEP4
 JESTEM W ROSING STEP5
 JESTEM W ROSING STEP3
 NINTMX                 15000
 JESTEM W ROSING STEP4
 JESTEM W ROSING STEP5
 JESTEM W ROSING STEP3
 NINTMX                 15000
 JESTEM W ROSING STEP4
 JESTEM W ROSING STEP5
 JESTEM W ROSING STEP3
 NINTMX                 15000
 JESTEM W ROSING STEP4
 JESTEM W ROSING STEP5
 JESTEM W ROSING STEP3
 NINTMX                 15000
 JESTEM W ROSING STEP4
 JESTEM W ROSING STEP5
 JESTEM W ROSING STEP3
 NINTMX                 15000
 JESTEM W ROSING STEP4
 JESTEM W ROSING STEP5
 JESTEM W ROSING STEP3
 NINTMX                 15000
 JESTEM W ROSING STEP4
 JESTEM W ROSING STEP5
 JESTEM W ROSING STEP3
 NINTMX                 15000
 JESTEM W ROSING STEP4
 JESTEM W ROSING STEP5
 JESTEM W ROSING STEP3
 NINTMX                 15000
 JESTEM W ROSING STEP4
 JESTEM W ROSING STEP5
 JESTEM W ROSING STEP3
 NINTMX                 15000
 JESTEM W ROSING STEP4
 JESTEM W ROSING STEP5
 JESTEM W ROSING STEP3
 NINTMX                 15000
 JESTEM W ROSING STEP4
 JESTEM W ROSING STEP5
 JESTEM W ROSING STEP3
 NINTMX                 15000
 JESTEM W ROSING STEP4
 JESTEM W ROSING STEP5
 JESTEM W ROSING STEP3
 NINTMX                 15000
 JESTEM W ROSING STEP4
 JESTEM W ROSING STEP5
 JESTEM W ROSING STEP3
 NINTMX                 15000
 JESTEM W ROSING STEP4
 JESTEM W ROSING STEP5
 JESTEM W ROSING STEP3
 NINTMX                 15000
 JESTEM W ROSING STEP4
 JESTEM W ROSING STEP5
 JESTEM W ROSING STEP3
 NINTMX                 15000
 JESTEM W ROSING STEP4
 JESTEM W ROSING STEP5
 JESTEM W ROSING STEP3
 NINTMX                 15000
 JESTEM W ROSING STEP4
 JESTEM W ROSING STEP5
 JESTEM W ROSING STEP3
 NINTMX                 15000
 JESTEM W ROSING STEP4
 JESTEM W ROSING STEP5
 JESTEM W ROSING STEP3
 NINTMX                 15000
 JESTEM W ROSING STEP4
 JESTEM W ROSING STEP5
 JESTEM W ROSING STEP3
 NINTMX                 15000
 JESTEM W ROSING STEP4
 JESTEM W ROSING STEP5
 JESTEM W ROSING STEP3
 NINTMX                 15000
 JESTEM W ROSING STEP4
 JESTEM W ROSING STEP5
 JESTEM W ROSING STEP3
 NINTMX                 15000
 JESTEM W ROSING STEP4
 JESTEM W ROSING STEP5
 JESTEM W ROSING STEP3
 NINTMX                 15000
 JESTEM W ROSING STEP4
 JESTEM W ROSING STEP5
 JESTEM W ROSING STEP3
 NINTMX                 15000
 JESTEM W ROSING STEP4
 JESTEM W ROSING STEP5
 JESTEM W ROSING STEP3
 NINTMX                 15000
 JESTEM W ROSING STEP4
 JESTEM W ROSING STEP5
 JESTEM W ROSING STEP3
 NINTMX                 15000
 JESTEM W ROSING STEP4
 JESTEM W ROSING STEP5
 JESTEM W ROSING STEP3
 NINTMX                 15000
 JESTEM W ROSING STEP4
 JESTEM W ROSING STEP5
 JESTEM W ROSING STEP3
 NINTMX                 15000
 JESTEM W ROSING STEP4
 JESTEM W ROSING STEP5
 JESTEM W ROSING STEP3
 NINTMX                 15000
 JESTEM W ROSING STEP4
 JESTEM W ROSING STEP5
 JESTEM W ROSING STEP3
 NINTMX                 15000
 JESTEM W ROSING STEP4
 JESTEM W ROSING STEP5
 JESTEM W ROSING STEP3
 NINTMX                 15000
 JESTEM W ROSING STEP4
 JESTEM W ROSING STEP5
 JESTEM W ROSING STEP3
 NINTMX                 15000
 JESTEM W ROSING STEP4
 JESTEM W ROSING STEP5
 JESTEM W ROSING STEP3
 NINTMX                 15000
 JESTEM W ROSING STEP4
 JESTEM W ROSING STEP5
 JESTEM W ROSING STEP3
 NINTMX                 15000
 JESTEM W ROSING STEP4
 JESTEM W ROSING STEP5
 JESTEM W ROSING STEP3
 NINTMX                 15000
 JESTEM W ROSING STEP4
 JESTEM W ROSING STEP5
 JESTEM W ROSING STEP3
 NINTMX                 15000
 JESTEM W ROSING STEP4
 JESTEM W ROSING STEP5
 JESTEM W ROSING STEP3
 NINTMX                 15000
 JESTEM W ROSING STEP4
 JESTEM W ROSING STEP5
 JESTEM W ROSING STEP3
 NINTMX                 15000
 JESTEM W ROSING STEP4
 JESTEM W ROSING STEP5
 JESTEM W ROSING STEP3
 NINTMX                 15000
 JESTEM W ROSING STEP4
 JESTEM W ROSING STEP5
 JESTEM W ROSING STEP3
 NINTMX                 15000
 JESTEM W ROSING STEP4
 JESTEM W ROSING STEP5
 JESTEM W ROSING STEP3
 NINTMX                 15000
 JESTEM W ROSING STEP4
 JESTEM W ROSING STEP5
 JESTEM W ROSING STEP3
 NINTMX                 15000
 JESTEM W ROSING STEP4
 JESTEM W ROSING STEP5
 JESTEM W ROSING STEP3
 NINTMX                 15000
 JESTEM W ROSING STEP4
 JESTEM W ROSING STEP5
 JESTEM W ROSING STEP3
 NINTMX                 15000
 JESTEM W ROSING STEP4
 JESTEM W ROSING STEP5
 JESTEM W ROSING STEP3
 NINTMX                 15000
 JESTEM W ROSING STEP4
 JESTEM W ROSING STEP5
 JESTEM W ROSING STEP3
 NINTMX                 15000
 JESTEM W ROSING STEP4
 JESTEM W ROSING STEP5
 JESTEM W ROSING STEP3
 NINTMX                 15000
 JESTEM W ROSING STEP4
 JESTEM W ROSING STEP5
 JESTEM W ROSING STEP3
 NINTMX                 15000
 JESTEM W ROSING STEP4
 JESTEM W ROSING STEP5
 JESTEM W ROSING STEP3
 NINTMX                 15000
 JESTEM W ROSING STEP4
 JESTEM W ROSING STEP5
 JESTEM W ROSING STEP3
 NINTMX                 15000
 JESTEM W ROSING STEP4
 JESTEM W ROSING STEP5
 JESTEM W ROSING STEP3
 NINTMX                 15000
 JESTEM W ROSING STEP4
 JESTEM W ROSING STEP5
 JESTEM W ROSING STEP3
 NINTMX                 15000
 JESTEM W ROSING STEP4
 JESTEM W ROSING STEP5
 JESTEM W ROSING STEP3
 NINTMX                 15000
 JESTEM W ROSING STEP4
 JESTEM W ROSING STEP5
 JESTEM W ROSING STEP3
 NINTMX                 15000
 JESTEM W ROSING STEP4
 JESTEM W ROSING STEP5
 JESTEM W ROSING STEP3
 NINTMX                 15000
 JESTEM W ROSING STEP4
 JESTEM W ROSING STEP5
 JESTEM W ROSING STEP3
 NINTMX                 15000
 JESTEM W ROSING STEP4
 JESTEM W ROSING STEP5
 JESTEM W ROSING STEP3
 NINTMX                 15000
 JESTEM W ROSING STEP4
 JESTEM W ROSING STEP5
 JESTEM W ROSING STEP3
 NINTMX                 15000
 JESTEM W ROSING STEP4
 JESTEM W ROSING STEP5
 JESTEM W ROSING STEP3
 NINTMX                 15000
 JESTEM W ROSING STEP4
 JESTEM W ROSING STEP5
 JESTEM W ROSING STEP3
 NINTMX                 15000
 JESTEM W ROSING STEP4
 JESTEM W ROSING STEP5
 JESTEM W ROSING STEP3
 NINTMX                 15000
 JESTEM W ROSING STEP4
 JESTEM W ROSING STEP5
 JESTEM W ROSING STEP3
 NINTMX                 15000
 JESTEM W ROSING STEP4
 JESTEM W ROSING STEP5
 JESTEM W ROSING STEP3
 NINTMX                 15000
 JESTEM W ROSING STEP4
 JESTEM W ROSING STEP5
 JESTEM W ROSING STEP3
 NINTMX                 15000
 JESTEM W ROSING STEP4
 JESTEM W ROSING STEP5
 JESTEM W ROSING STEP3
 NINTMX                 15000
 JESTEM W ROSING STEP4
 JESTEM W ROSING STEP5
 JESTEM W ROSING STEP3
 NINTMX                 15000
 JESTEM W ROSING STEP4
 JESTEM W ROSING STEP5
 JESTEM W ROSING STEP3
 NINTMX                 15000
 JESTEM W ROSING STEP4
 JESTEM W ROSING STEP5
 JESTEM W ROSING STEP3
 NINTMX                 15000
 JESTEM W ROSING STEP4
 JESTEM W ROSING STEP5
 JESTEM W ROSING STEP3
 NINTMX                 15000
 JESTEM W ROSING STEP4
 JESTEM W ROSING STEP5
 JESTEM W ROSING STEP3
 NINTMX                 15000
 JESTEM W ROSING STEP4
 JESTEM W ROSING STEP5
 JESTEM W ROSING STEP3
 NINTMX                 15000
 JESTEM W ROSING STEP4
 JESTEM W ROSING STEP5
 JESTEM W ROSING STEP3
 NINTMX                 15000
 JESTEM W ROSING STEP4
 JESTEM W ROSING STEP5
 JESTEM W ROSING STEP3
 NINTMX                 15000
 JESTEM W ROSING STEP4
 JESTEM W ROSING STEP5
 JESTEM W ROSING STEP3
 NINTMX                 15000
 JESTEM W ROSING STEP4
 JESTEM W ROSING STEP5
 JESTEM W ROSING STEP3
 NINTMX                 15000
 JESTEM W ROSING STEP4
 JESTEM W ROSING STEP5
 JESTEM W ROSING STEP3
 NINTMX                 15000
 JESTEM W ROSING STEP4
 JESTEM W ROSING STEP5
 JESTEM W ROSING STEP3
 NINTMX                 15000
 JESTEM W ROSING STEP4
 JESTEM W ROSING STEP5
 JESTEM W ROSING
 ....... DONE WITH CC INTEGRAL PREPARATION .......
 STEP CPU TIME =    86.54 TOTAL CPU TIME =       92.0 (    1.5 MIN)
 TOTAL WALL CLOCK TIME=       92.0 SECONDS, CPU UTILIZATION IS  99.93%
              54734557  WORDS OF DYNAMIC MEMORY USED
 EXECUTION OF GAMESS TERMINATED NORMALLY Sat May  9 01:54:01 2020
 DDI: 263624 bytes (0.3 MB / 0 MWords) used by master data server.

 ----------------------------------------
 CPU timing information for all processes
 ========================================
 0: 43.922 + 48.95 = 92.18
 ----------------------------------------
 ddikick.x: exited gracefully.
----- accounting info -----
Files used on the master node cluster.cem.msu.edu were:
-rw-r--r-- 1 chakra56 piecuch   126318 May  9 01:52 /scratch/chakra56/CC_PACKAGE/TMM_B1A1_ccpvdz_rhf/TMM_B1A1_ccpvdz_rhf.F05
-rw-r--r-- 1 chakra56 piecuch 34023024 May  9 01:52 /scratch/chakra56/CC_PACKAGE/TMM_B1A1_ccpvdz_rhf/TMM_B1A1_ccpvdz_rhf.F08
-rw-r--r-- 1 chakra56 piecuch 22531936 May  9 01:52 /scratch/chakra56/CC_PACKAGE/TMM_B1A1_ccpvdz_rhf/TMM_B1A1_ccpvdz_rhf.F09
-rw-r--r-- 1 chakra56 piecuch  1832320 May  9 01:54 /scratch/chakra56/CC_PACKAGE/TMM_B1A1_ccpvdz_rhf/TMM_B1A1_ccpvdz_rhf.F10
-rw-r--r-- 1 chakra56 piecuch        0 May  9 01:52 /scratch/chakra56/CC_PACKAGE/TMM_B1A1_ccpvdz_rhf/TMM_B1A1_ccpvdz_rhf.F72
Sat May  9 01:54:04 EDT 2020
0.194u 0.102s 1:35.37 0.3%	0+0k 0+272io 0pf+0w
